      -----------------------------------------------------------      
     |                   =====================                   |     
     |                           x T B                           |     
     |                   =====================                   |     
     |                         S. Grimme                         |     
     |          Mulliken Center for Theoretical Chemistry        |     
     |                    University of Bonn                     |     
      -----------------------------------------------------------      

   * xtb version 6.7.1 (edcfbbe) compiled by 'albert@albert-system' on 2024-07-22

   xtb is free software: you can redistribute it and/or modify it under
   the terms of the GNU Lesser General Public License as published by
   the Free Software Foundation, either version 3 of the License, or
   (at your option) any later version.
   
   xtb is distributed in the hope that it will be useful,
   but WITHOUT ANY WARRANTY; without even the implied warranty of
   MERCHANTABILITY or FITNESS FOR A PARTICULAR PURPOSE.  See the
   GNU Lesser General Public License for more details.
   
   Cite this work as:
   * C. Bannwarth, E. Caldeweyher, S. Ehlert, A. Hansen, P. Pracht,
     J. Seibert, S. Spicher, S. Grimme, WIREs Comput. Mol. Sci., 2020, 11,
     e01493. DOI: 10.1002/wcms.1493
   
   for GFN2-xTB:
   * C. Bannwarth, S. Ehlert and S. Grimme., J. Chem. Theory Comput., 2019,
     15, 1652-1671. DOI: 10.1021/acs.jctc.8b01176
   for GFN1-xTB:
   * S. Grimme, C. Bannwarth, P. Shushkov, J. Chem. Theory Comput., 2017,
     13, 1989-2009. DOI: 10.1021/acs.jctc.7b00118
   for GFN0-xTB:
   * P. Pracht, E. Caldeweyher, S. Ehlert, S. Grimme, ChemRxiv, 2019, preprint.
     DOI: 10.26434/chemrxiv.8326202.v1
   for GFN-FF:
   * S. Spicher and S. Grimme, Angew. Chem. Int. Ed., 2020, 59, 15665-15673.
     DOI: 10.1002/anie.202004239
   
   for ALPB and GBSA implicit solvation:
   * S. Ehlert, M. Stahn, S. Spicher, S. Grimme, J. Chem. Theory Comput.,
     2021, 17, 4250-4261. DOI: 10.1021/acs.jctc.1c00471
   
   for ddCOSMO and CPCM-X implicit solvation:
   * M. Stahn, S. Ehlert, S. Grimme, J. Phys. Chem. A,
     2023, XX, XXXX-XXXX. DOI: 10.1021/acs.jpca.3c04382
   
   for DFT-D4:
   * E. Caldeweyher, C. Bannwarth and S. Grimme, J. Chem. Phys., 2017,
     147, 034112. DOI: 10.1063/1.4993215
   * E. Caldeweyher, S. Ehlert, A. Hansen, H. Neugebauer, S. Spicher,
     C. Bannwarth and S. Grimme, J. Chem. Phys., 2019, 150, 154122.
     DOI: 10.1063/1.5090222
   * E. Caldeweyher, J.-M. Mewes, S. Ehlert and S. Grimme, Phys. Chem. Chem. Phys.
     2020, 22, 8499-8512. DOI: 10.1039/D0CP00502A
   
   for sTDA-xTB:
   * S. Grimme and C. Bannwarth, J. Chem. Phys., 2016, 145, 054103.
     DOI: 10.1063/1.4959605
   
   in the mass-spec context:
   * V. Asgeirsson, C. Bauer and S. Grimme, Chem. Sci., 2017, 8, 4879.
     DOI: 10.1039/c7sc00601b
   * J. Koopman and S. Grimme, ACS Omega 2019, 4, 12, 15120-15133.
     DOI: 10.1021/acsomega.9b02011
   
   for metadynamics refer to:
   * S. Grimme, J. Chem. Theory Comput., 2019, 155, 2847-2862
     DOI: 10.1021/acs.jctc.9b00143
   
   for SPH calculations refer to:
   * S. Spicher and S. Grimme, J. Chem. Theory Comput., 2021, 17, 1701-1714
     DOI: 10.1021/acs.jctc.0c01306
   
   for ONIOM refer to:
   * C. Plett, A. Katbashev, S. Ehlert, S. Grimme, M. Bursch,
     Phys. Chem. Chem. Phys., 2023, 25, 17860-17868. DOI: 10.1039/D3CP02178E
   
   for DIPRO refer to:
   * J. Kohn, N. Gildemeister, S. Grimme, D. Fazzi, A. Hansen,
     J. Chem. Phys., 2023, just accepted.
   
   for PTB refer to:
   * S. Grimme, M. Mueller, A. Hansen, J. Chem. Phys., 2023, 158, 124111.
     DOI: 10.1063/5.0137838
   
   with help from (in alphabetical order)
   P. Atkinson, C. Bannwarth, F. Bohle, G. Brandenburg, E. Caldeweyher
   M. Checinski, S. Dohm, S. Ehlert, S. Ehrlich, I. Gerasimov, C. Hölzer
   A. Katbashev, J. Kohn, J. Koopman, C. Lavigne, S. Lehtola, F. März, M. Müller,
   F. Musil, H. Neugebauer, J. Pisarek, C. Plett, P. Pracht, F. Pultar,
   J. Seibert, P. Shushkov, S. Spicher, M. Stahn, M. Steiner, T. Strunk,
   J. Stückrath, T. Rose, and J. Unsleber
   
 * started run on 2026/06/19 at 18:53:07.035     
   ID    Z sym.   atoms
    1    6 C      1-11, 13, 18, 20, 22-25, 29, 31, 33, 34, 36-41, 43-50,
                  53-57, 59, 64-75, 77
    2    8 O      12, 14-17, 19, 21, 26-28, 30, 32, 35, 42, 51, 52, 58,
                  60-63, 76
    3    1 H      78-147

           -------------------------------------------------
          |                Calculation Setup                |
           -------------------------------------------------

          program call               : xtb PAPU-0090/conf02.xyz --gfn 2 --alpb octanol --chrg 0 --uhf 0 --namespace PAPU-0090/conf02_octanol
          hostname                   : cpu10
          calculation namespace      : PAPU-0090/conf02_octanol
          coordinate file            : PAPU-0090/conf02.xyz
          omp threads                :                    16


           -------------------------------------------------
          |                 G F N 2 - x T B                 |
           -------------------------------------------------

        Reference                      10.1021/acs.jctc.8b01176
      * Hamiltonian:
        H0-scaling (s, p, d)           1.850000    2.230000    2.230000
        zeta-weighting                 0.500000
      * Dispersion:
        s8                             2.700000
        a1                             0.520000
        a2                             5.000000
        s9                             5.000000
      * Repulsion:
        kExp                           1.500000    1.000000
        rExp                           1.000000
      * Coulomb:
        alpha                          2.000000
        third order                    shell-resolved
        anisotropic                    true
        a3                             3.000000
        a5                             4.000000
        cn-shift                       1.200000
        cn-exp                         4.000000
        max-rad                        5.000000

      * Solvation model:               ALPB
        Solvent                        octanol
        Parameter file                 internal GFN2-xTB/ALPB
        Dielectric constant                9.8629E+00
        Reference state                gsolv [1 M gas/solution]
        Free energy shift                  2.3397E-03 Eh       1.4682E+00 kcal/mol
        Temperature                        2.9815E+02 K
        Density                            8.3000E-01 kg/L
        Solvent mass                       1.3023E+02 g/mol
        Interaction kernel             P16
        Born radius scaling (c1)           1.5898E+00
        Born radii integrator          GBOBC
        Born offset                        0.0000E+00 a0       0.0000E+00 AA
        H-bond correction              true
        Ion screening                  false
        Surface tension                    1.0000E-05 Eh       1.5569E+01 dyn/cm
        Grid points                               230 per atom

          ...................................................
          :                      SETUP                      :
          :.................................................:
          :  # basis functions                 378          :
          :  # atomic orbitals                 378          :
          :  # shells                          224          :
          :  # electrons                       422          :
          :  max. iterations                   250          :
          :  Hamiltonian                  GFN2-xTB          :
          :  restarted?                      false          :
          :  GBSA solvation                   true          :
          :  PC potential                    false          :
          :  electronic temp.          300.0000000     K    :
          :  accuracy                    1.0000000          :
          :  -> integral cutoff          0.2500000E+02      :
          :  -> integral neglect         0.1000000E-07      :
          :  -> SCF convergence          0.1000000E-05 Eh   :
          :  -> wf. convergence          0.1000000E-03 e    :
          :  Broyden damping             0.4000000          :
          :  net charge                          0          :
          :  unpaired electrons                  0          :
          ...................................................

 iter      E             dE          RMSdq      gap      omega  full diag
   1   -245.3921672 -0.245392E+03  0.459E+00    2.40       0.0  T
   2   -245.6187294 -0.226562E+00  0.253E+00    1.74       1.0  T
   3   -245.5957019  0.230275E-01  0.106E+00    1.82       1.0  T
   4   -245.6419942 -0.462923E-01  0.309E-01    1.64       1.0  T
   5   -245.6476172 -0.562297E-02  0.134E-01    1.62       1.0  T
   6   -245.6486246 -0.100736E-02  0.653E-02    1.64       1.0  T
   7   -245.6487899 -0.165303E-03  0.281E-02    1.64       1.0  T
   8   -245.6488201 -0.302199E-04  0.115E-02    1.64       1.0  T
   9   -245.6488245 -0.439254E-05  0.575E-03    1.64       1.4  T
  10   -245.6488265 -0.197242E-05  0.252E-03    1.64       3.3  T
  11   -245.6488267 -0.219651E-06  0.122E-03    1.64       6.8  T
  12   -245.6488267 -0.304588E-07  0.500E-04    1.64      16.5  T
  13   -245.6488267 -0.104411E-07  0.230E-04    1.64      35.9  T

   *** convergence criteria satisfied after 13 iterations ***

         #    Occupation            Energy/Eh            Energy/eV
      -------------------------------------------------------------
         1        2.0000           -0.7681920             -20.9036
       ...           ...                  ...                  ...
       205        2.0000           -0.4074045             -11.0860
       206        2.0000           -0.4056220             -11.0375
       207        2.0000           -0.4038531             -10.9894
       208        2.0000           -0.4032610             -10.9733
       209        2.0000           -0.3900285             -10.6132
       210        2.0000           -0.3856734             -10.4947
       211        2.0000           -0.3710867             -10.0978 (HOMO)
       212                         -0.3108767              -8.4594 (LUMO)
       213                         -0.2908665              -7.9149
       214                         -0.2468009              -6.7158
       215                         -0.2394493              -6.5157
       216                         -0.2367263              -6.4417
       ...                                ...                  ...
       378                          0.6783712              18.4594
      -------------------------------------------------------------
                  HL-Gap            0.0602100 Eh            1.6384 eV
             Fermi-level           -0.3409817 Eh           -9.2786 eV

 SCC (total)                   0 d,  0 h,  0 min,  0.273 sec
 SCC setup                      ...        0 min,  0.004 sec (  1.333%)
 Dispersion                     ...        0 min,  0.004 sec (  1.595%)
 classical contributions        ...        0 min,  0.000 sec (  0.081%)
 integral evaluation            ...        0 min,  0.012 sec (  4.388%)
 iterations                     ...        0 min,  0.212 sec ( 77.696%)
 molecular gradient             ...        0 min,  0.039 sec ( 14.443%)
 printout                       ...        0 min,  0.001 sec (  0.446%)

         :::::::::::::::::::::::::::::::::::::::::::::::::::::
         ::                     SUMMARY                     ::
         :::::::::::::::::::::::::::::::::::::::::::::::::::::
         :: total energy            -242.987043536110 Eh    ::
         :: total w/o Gsasa/hb      -242.904681477495 Eh    ::
         :: gradient norm              0.125007054149 Eh/a0 ::
         :: HOMO-LUMO gap              1.638398162658 eV    ::
         ::.................................................::
         :: SCC energy              -245.633746236713 Eh    ::
         :: -> isotropic ES            0.558995835201 Eh    ::
         :: -> anisotropic ES         -0.031904208137 Eh    ::
         :: -> anisotropic XC          0.020711843661 Eh    ::
         :: -> dispersion             -0.202391447837 Eh    ::
         :: -> Gsolv                  -0.120601739269 Eh    ::
         ::    -> Gelec               -0.038239680654 Eh    ::
         ::    -> Gsasa               -0.031612349242 Eh    ::
         ::    -> Ghb                 -0.053089378748 Eh    ::
         ::    -> Gshift               0.002339669376 Eh    ::
         :: repulsion energy           2.646702700603 Eh    ::
         :: add. restraining           0.000000000000 Eh    ::
         :: total charge               0.000000000000 e     ::
         :::::::::::::::::::::::::::::::::::::::::::::::::::::

           -------------------------------------------------
          |                Property Printout                |
           -------------------------------------------------

    * Orbital Energies and Occupations

         #    Occupation            Energy/Eh            Energy/eV
      -------------------------------------------------------------
         1        2.0000           -0.7681920             -20.9036
       ...           ...                  ...                  ...
       199        2.0000           -0.4189476             -11.4001
       200        2.0000           -0.4169437             -11.3456
       201        2.0000           -0.4164906             -11.3333
       202        2.0000           -0.4145673             -11.2810
       203        2.0000           -0.4117712             -11.2049
       204        2.0000           -0.4085847             -11.1182
       205        2.0000           -0.4074045             -11.0860
       206        2.0000           -0.4056220             -11.0375
       207        2.0000           -0.4038531             -10.9894
       208        2.0000           -0.4032610             -10.9733
       209        2.0000           -0.3900285             -10.6132
       210        2.0000           -0.3856734             -10.4947
       211        2.0000           -0.3710867             -10.0978 (HOMO)
       212                         -0.3108767              -8.4594 (LUMO)
       213                         -0.2908665              -7.9149
       214                         -0.2468009              -6.7158
       215                         -0.2394493              -6.5157
       216                         -0.2367263              -6.4417
       217                         -0.2352134              -6.4005
       218                         -0.2302630              -6.2658
       219                         -0.2288280              -6.2267
       220                         -0.2278019              -6.1988
       221                         -0.1985190              -5.4020
       222                         -0.1624123              -4.4195
       ...                                ...                  ...
       378                          0.6783712              18.4594
      -------------------------------------------------------------
                  HL-Gap            0.0602100 Eh            1.6384 eV
             Fermi-level           -0.3409817 Eh           -9.2786 eV

     #   Z          covCN         q      C6AA      α(0)
     1   6 C        2.840     0.147    24.806     8.162
     2   6 C        2.975    -0.026    28.655     8.781
     3   6 C        2.964    -0.005    28.153     8.703
     4   6 C        2.927    -0.098    30.460     9.051
     5   6 C        2.836     0.150    24.738     8.151
     6   6 C        2.922    -0.104    30.617     9.074
     7   6 C        3.750     0.101    18.981     6.213
     8   6 C        3.723     0.092    19.167     6.252
     9   6 C        3.777     0.097    19.006     6.211
    10   6 C        3.749     0.095    19.068     6.228
    11   6 C        3.742     0.085    19.242     6.258
    12   8 O        1.696    -0.343    19.757     6.001
    13   6 C        3.681     0.071    19.599     6.340
    14   8 O        1.653    -0.500    22.901     6.460
    15   8 O        1.651    -0.472    22.309     6.376
    16   8 O        1.698    -0.337    19.651     5.985
    17   8 O        1.702    -0.294    18.893     5.869
    18   6 C        3.676     0.068    19.656     6.352
    19   8 O        1.654    -0.479    22.450     6.396
    20   6 C        3.655     0.251    16.990     5.918
    21   8 O        1.696    -0.362    20.105     6.054
    22   6 C        3.753     0.107    18.875     6.195
    23   6 C        3.721     0.090    19.202     6.258
    24   6 C        3.722     0.080    19.354     6.283
    25   6 C        3.752     0.084    19.246     6.256
    26   8 O        1.654    -0.480    22.463     6.398
    27   8 O        1.699    -0.322    19.382     5.944
    28   8 O        1.653    -0.483    22.536     6.408
    29   6 C        3.727     0.061    19.645     6.328
    30   8 O        1.702    -0.272    18.517     5.810
    31   6 C        2.750     0.361    20.884     7.483
    32   8 O        0.857    -0.460    22.919     6.419
    33   6 C        2.750     0.361    20.871     7.481
    34   6 C        2.897    -0.092    30.306     9.026
    35   8 O        0.858    -0.493    23.640     6.519
    36   6 C        2.904     0.002    27.974     8.672
    37   6 C        2.898    -0.045    29.114     8.847
    38   6 C        2.895    -0.011    28.300     8.722
    39   6 C        3.806    -0.077    21.957     6.671
    40   6 C        3.728     0.123    18.664     6.168
    41   6 C        2.896    -0.074    29.855     8.959
    42   8 O        1.652    -0.502    22.930     6.464
    43   6 C        2.898    -0.034    28.848     8.806
    44   6 C        2.899    -0.048    29.183     8.858
    45   6 C        2.893    -0.032    28.807     8.800
    46   6 C        3.804    -0.062    21.683     6.629
    47   6 C        3.798    -0.059    21.640     6.624
    48   6 C        3.798    -0.058    21.628     6.622
    49   6 C        3.798    -0.051    21.488     6.600
    50   6 C        3.750    -0.101    22.501     6.765
    51   8 O        1.656    -0.441    21.660     6.283
    52   8 O        1.657    -0.435    21.539     6.265
    53   6 C        3.647     0.236    17.228     5.964
    54   6 C        3.722     0.085    19.278     6.270
    55   6 C        3.723     0.096    19.094     6.240
    56   6 C        3.722     0.087    19.239     6.264
    57   6 C        3.740     0.104    18.950     6.211
    58   8 O        1.696    -0.354    19.959     6.032
    59   6 C        3.674     0.066    19.699     6.360
    60   8 O        1.653    -0.479    22.441     6.395
    61   8 O        1.654    -0.477    22.406     6.390
    62   8 O        1.654    -0.483    22.531     6.408
    63   8 O        1.652    -0.465    22.159     6.354
    64   6 C        2.975    -0.023    28.571     8.768
    65   6 C        2.925    -0.024    28.609     8.771
    66   6 C        2.926    -0.038    28.938     8.822
    67   6 C        2.974     0.027    27.400     8.586
    68   6 C        2.928    -0.034    28.847     8.808
    69   6 C        2.923    -0.022    28.550     8.762
    70   6 C        2.972    -0.013    28.332     8.731
    71   6 C        2.924    -0.039    28.958     8.825
    72   6 C        2.920    -0.044    29.088     8.844
    73   6 C        2.920    -0.034    28.837     8.806
    74   6 C        2.919    -0.067    29.678     8.934
    75   6 C        2.864     0.136    25.029     8.201
    76   8 O        1.701    -0.294    18.891     5.868
    77   6 C        3.647     0.029    20.409     6.492
    78   1 H        0.926     0.061     2.192     2.315
    79   1 H        0.926     0.074     2.037     2.232
    80   1 H        0.924     0.043     2.404     2.425
    81   1 H        0.923     0.076     2.023     2.224
    82   1 H        0.924     0.062     2.180     2.309
    83   1 H        0.923     0.079     1.984     2.203
    84   1 H        0.923     0.052     2.299     2.371
    85   1 H        0.924     0.038     2.481     2.463
    86   1 H        0.924     0.066     2.133     2.284
    87   1 H        0.804     0.347     0.595     1.212
    88   1 H        0.802     0.325     0.651     1.268
    89   1 H        0.924     0.065     2.138     2.286
    90   1 H        0.924     0.051     2.307     2.376
    91   1 H        0.803     0.351     0.587     1.204
    92   1 H        0.923     0.007     2.933     2.678
    93   1 H        0.923     0.042     2.427     2.436
    94   1 H        0.923     0.053     2.280     2.361
    95   1 H        0.923     0.064     2.152     2.294
    96   1 H        0.923     0.087     1.912     2.163
    97   1 H        0.804     0.360     0.565     1.181
    98   1 H        0.803     0.368     0.549     1.164
    99   1 H        0.924     0.098     1.807     2.102
   100   1 H        0.924     0.089     1.887     2.148
   101   1 H        0.926     0.082     1.959     2.189
   102   1 H        0.926     0.070     2.087     2.259
   103   1 H        0.926     0.072     2.066     2.248
   104   1 H        0.926     0.065     2.146     2.291
   105   1 H        0.924     0.070     2.084     2.258
   106   1 H        0.924     0.084     1.937     2.177
   107   1 H        0.923     0.018     2.763     2.600
   108   1 H        0.926     0.045     2.386     2.416
   109   1 H        0.804     0.339     0.614     1.231
   110   1 H        0.926     0.046     2.370     2.408
   111   1 H        0.926     0.040     2.442     2.444
   112   1 H        0.926     0.033     2.549     2.497
   113   1 H        0.924     0.049     2.332     2.388
   114   1 H        0.924     0.036     2.503     2.474
   115   1 H        0.924     0.042     2.427     2.436
   116   1 H        0.923     0.033     2.544     2.494
   117   1 H        0.924     0.028     2.621     2.532
   118   1 H        0.923     0.035     2.513     2.479
   119   1 H        0.924     0.031     2.579     2.511
   120   1 H        0.923     0.016     2.788     2.611
   121   1 H        0.924     0.049     2.329     2.386
   122   1 H        0.924     0.031     2.573     2.508
   123   1 H        0.924     0.015     2.804     2.618
   124   1 H        0.804     0.364     0.556     1.172
   125   1 H        0.804     0.360     0.566     1.181
   126   1 H        0.923     0.006     2.961     2.691
   127   1 H        0.923     0.061     2.188     2.313
   128   1 H        0.923     0.031     2.574     2.509
   129   1 H        0.923     0.051     2.314     2.379
   130   1 H        0.923     0.006     2.956     2.689
   131   1 H        0.924     0.054     2.271     2.357
   132   1 H        0.924     0.094     1.845     2.124
   133   1 H        0.803     0.368     0.548     1.163
   134   1 H        0.804     0.367     0.550     1.165
   135   1 H        0.804     0.358     0.570     1.186
   136   1 H        0.801     0.309     0.695     1.310
   137   1 H        0.926     0.056     2.250     2.345
   138   1 H        0.926     0.064     2.152     2.294
   139   1 H        0.926     0.082     1.955     2.186
   140   1 H        0.926     0.054     2.274     2.358
   141   1 H        0.926     0.055     2.253     2.347
   142   1 H        0.926     0.050     2.319     2.382
   143   1 H        0.926     0.052     2.291     2.367
   144   1 H        0.926     0.055     2.263     2.352
   145   1 H        0.924     0.051     2.310     2.377
   146   1 H        0.924     0.069     2.101     2.267
   147   1 H        0.924     0.051     2.312     2.378

 Mol. C6AA /au·bohr⁶  :     216278.591868
 Mol. C8AA /au·bohr⁸  :    4961483.558734
 Mol. α(0) /au        :        702.545695


Wiberg/Mayer (AO) data.
largest (>0.10) Wiberg bond orders for each atom

 ---------------------------------------------------------------------------
     #   Z sym  total        # sym  WBO       # sym  WBO       # sym  WBO
 ---------------------------------------------------------------------------
     1   6 C    3.941 --     6 C    1.391     2 C    1.334    51 O    1.072
     2   6 C    3.977 --     3 C    1.396     1 C    1.334     7 C    0.993
     3   6 C    3.986 --     4 C    1.421     2 C    1.396    13 C    1.000
     4   6 C    3.979 --     3 C    1.421     5 C    1.364    78 H    0.962
     5   6 C    3.944 --     6 C    1.377     4 C    1.364    52 O    1.075
     6   6 C    3.977 --     1 C    1.391     5 C    1.377    79 H    0.961
     7   6 C    3.941 --     2 C    0.993     8 C    0.951    80 H    0.949
                            12 O    0.948
     8   6 C    3.951 --    15 O    1.004     9 C    0.956    81 H    0.952
                             7 C    0.951
     9   6 C    3.919 --    10 C    0.969     8 C    0.956    82 H    0.937
                            17 O    0.937
    10   6 C    3.929 --     9 C    0.969    11 C    0.958    16 O    0.955
                            83 H    0.954
    11   6 C    3.947 --    18 C    0.983    12 O    0.973    10 C    0.958
                            84 H    0.948
    12   8 O    2.058 --    11 C    0.973     7 C    0.948
    13   6 C    3.951 --     3 C    1.000    14 O    0.988    85 H    0.968
                            86 H    0.946
    14   8 O    1.926 --    13 C    0.988    87 H    0.865
    15   8 O    1.954 --     8 C    1.004    88 H    0.845
    16   8 O    2.079 --    20 C    0.982    10 C    0.955
    17   8 O    2.270 --    33 C    1.097     9 C    0.937    35 O    0.143
    18   6 C    3.960 --    19 O    1.011    11 C    0.983    89 H    0.967
                            90 H    0.966
    19   8 O    1.929 --    18 C    1.011    91 H    0.857
    20   6 C    3.924 --    16 O    0.982    25 C    0.956    21 O    0.954
                            92 H    0.936
    21   8 O    2.061 --    20 C    0.954    22 C    0.949
    22   6 C    3.934 --    29 C    0.976    23 C    0.970    21 O    0.949
                            93 H    0.946
    23   6 C    3.966 --    28 O    1.007    22 C    0.970    24 C    0.966
                            94 H    0.957
    24   6 C    3.958 --    26 O    1.000    23 C    0.966    25 C    0.961
                            95 H    0.945
    25   6 C    3.937 --    27 O    0.967    24 C    0.961    20 C    0.956
                            96 H    0.953
    26   8 O    1.933 --    24 C    1.000    97 H    0.852
    27   8 O    2.092 --    53 C    0.983    25 C    0.967
    28   8 O    1.922 --    23 C    1.007    98 H    0.842
    29   6 C    3.920 --    22 C    0.976    99 H    0.963    30 O    0.959
                           100 H    0.954
    30   8 O    2.278 --    31 C    1.097    29 C    0.959    32 O    0.146
    31   6 C    3.887 --    32 O    1.671    30 O    1.097    64 C    1.016
    32   8 O    2.013 --    31 C    1.671    30 O    0.146
    33   6 C    3.895 --    35 O    1.611    17 O    1.097    34 C    1.074
    34   6 C    3.965 --    36 C    1.707    33 C    1.074   101 H    0.959
                            38 C    0.112
    35   8 O    1.987 --    33 C    1.611    17 O    0.143
    36   6 C    3.971 --    34 C    1.707    37 C    1.161   102 H    0.951
    37   6 C    3.985 --    38 C    1.777    36 C    1.161   103 H    0.958
    38   6 C    3.969 --    37 C    1.777    39 C    1.043   104 H    0.960
                            34 C    0.112
    39   6 C    3.988 --    38 C    1.043   105 H    0.968    40 C    0.959
                           106 H    0.942
    40   6 C    3.948 --    41 C    1.001    42 O    0.973   107 H    0.962
                            39 C    0.959
    41   6 C    3.984 --    43 C    1.853    40 C    1.001   108 H    0.956
                            45 C    0.109
    42   8 O    1.913 --    40 C    0.973   109 H    0.869
    43   6 C    3.991 --    41 C    1.853    44 C    1.108   110 H    0.960
    44   6 C    3.990 --    45 C    1.839    43 C    1.108   111 H    0.958
    45   6 C    3.986 --    44 C    1.839    46 C    1.029   112 H    0.967
                            41 C    0.109
    46   6 C    3.996 --    45 C    1.029    47 C    0.991   114 H    0.978
                           113 H    0.957
    47   6 C    3.995 --    48 C    1.008    46 C    0.991   116 H    0.977
                           115 H    0.971
    48   6 C    3.995 --    47 C    1.008    49 C    1.007   117 H    0.977
                           118 H    0.975
    49   6 C    3.997 --    50 C    1.022    48 C    1.007   119 H    0.969
                           120 H    0.969
    50   6 C    3.996 --    49 C    1.022   122 H    0.984   123 H    0.981
                           121 H    0.978
    51   8 O    2.087 --     1 C    1.072   124 H    0.847
    52   8 O    2.084 --     5 C    1.075   125 H    0.852
    53   6 C    3.923 --    27 O    0.983    54 C    0.955    58 O    0.954
                           126 H    0.945
    54   6 C    3.958 --    62 O    1.000    55 C    0.969   127 H    0.955
                            53 C    0.955
    55   6 C    3.966 --    61 O    1.003    54 C    0.969    56 C    0.967
                           128 H    0.960
    56   6 C    3.968 --    60 O    1.009    55 C    0.967    57 C    0.966
                           129 H    0.957
    57   6 C    3.937 --    59 C    0.982    56 C    0.966    58 O    0.951
                           130 H    0.946
    58   8 O    2.067 --    53 C    0.954    57 C    0.951
    59   6 C    3.951 --    63 O    1.006    57 C    0.982   132 H    0.963
                           131 H    0.962
    60   8 O    1.925 --    56 C    1.009   133 H    0.842
    61   8 O    1.933 --    55 C    1.003   134 H    0.848
    62   8 O    1.926 --    54 C    1.000   135 H    0.854
    63   8 O    1.941 --    59 C    1.006   136 H    0.852
    64   6 C    3.974 --    69 C    1.372    65 C    1.368    31 C    1.016
    65   6 C    3.987 --    66 C    1.468    64 C    1.368   137 H    0.962
    66   6 C    3.988 --    65 C    1.468    67 C    1.371   138 H    0.961
    67   6 C    3.986 --    66 C    1.371    68 C    1.370    70 C    1.066
    68   6 C    3.985 --    69 C    1.470    67 C    1.370   139 H    0.956
    69   6 C    3.986 --    68 C    1.470    64 C    1.372   140 H    0.966
    70   6 C    3.985 --    71 C    1.392    75 C    1.312    67 C    1.066
    71   6 C    3.987 --    72 C    1.451    70 C    1.392   141 H    0.963
    72   6 C    3.990 --    71 C    1.451    73 C    1.421   142 H    0.969
    73   6 C    3.982 --    74 C    1.446    72 C    1.421   143 H    0.969
    74   6 C    3.988 --    73 C    1.446    75 C    1.381   144 H    0.962
    75   6 C    3.929 --    74 C    1.381    70 C    1.312    76 O    1.037
    76   8 O    2.209 --    75 C    1.037    77 C    0.976
    77   6 C    3.937 --   145 H    0.978   146 H    0.977    76 O    0.976
                           147 H    0.973
    78   1 H    0.996 --     4 C    0.962
    79   1 H    0.994 --     6 C    0.961
    80   1 H    0.998 --     7 C    0.949
    81   1 H    0.993 --     8 C    0.952
    82   1 H    0.996 --     9 C    0.937
    83   1 H    0.993 --    10 C    0.954
    84   1 H    0.997 --    11 C    0.948
    85   1 H    0.998 --    13 C    0.968
    86   1 H    0.995 --    13 C    0.946
    87   1 H    0.879 --    14 O    0.865
    88   1 H    0.894 --    15 O    0.845
    89   1 H    0.995 --    18 C    0.967
    90   1 H    0.997 --    18 C    0.966
    91   1 H    0.877 --    19 O    0.857
    92   1 H    1.000 --    20 C    0.936
    93   1 H    0.998 --    22 C    0.946
    94   1 H    0.997 --    23 C    0.957
    95   1 H    0.996 --    24 C    0.945
    96   1 H    0.992 --    25 C    0.953
    97   1 H    0.870 --    26 O    0.852
    98   1 H    0.865 --    28 O    0.842
    99   1 H    0.990 --    29 C    0.963
   100   1 H    0.992 --    29 C    0.954
   101   1 H    0.993 --    34 C    0.959
   102   1 H    0.995 --    36 C    0.951
   103   1 H    0.995 --    37 C    0.958
   104   1 H    0.996 --    38 C    0.960
   105   1 H    0.995 --    39 C    0.968
   106   1 H    0.983 --    39 C    0.942
   107   1 H    0.999 --    40 C    0.962
   108   1 H    0.998 --    41 C    0.956
   109   1 H    0.884 --    42 O    0.869
   110   1 H    0.998 --    43 C    0.960
   111   1 H    0.998 --    44 C    0.958
   112   1 H    0.999 --    45 C    0.967
   113   1 H    0.997 --    46 C    0.957
   114   1 H    0.998 --    46 C    0.978
   115   1 H    0.998 --    47 C    0.971
   116   1 H    0.999 --    47 C    0.977
   117   1 H    0.999 --    48 C    0.977
   118   1 H    0.998 --    48 C    0.975
   119   1 H    0.999 --    49 C    0.969
   120   1 H    1.000 --    49 C    0.969
   121   1 H    0.997 --    50 C    0.978
   122   1 H    0.999 --    50 C    0.984
   123   1 H    1.000 --    50 C    0.981
   124   1 H    0.867 --    51 O    0.847
   125   1 H    0.870 --    52 O    0.852
   126   1 H    1.000 --    53 C    0.945
   127   1 H    0.996 --    54 C    0.955
   128   1 H    0.999 --    55 C    0.960
   129   1 H    0.997 --    56 C    0.957
   130   1 H    1.000 --    57 C    0.946
   131   1 H    0.996 --    59 C    0.962
   132   1 H    0.991 --    59 C    0.963
   133   1 H    0.865 --    60 O    0.842
   134   1 H    0.865 --    61 O    0.848
   135   1 H    0.872 --    62 O    0.854
   136   1 H    0.904 --    63 O    0.852
   137   1 H    0.996 --    65 C    0.962
   138   1 H    0.995 --    66 C    0.961
   139   1 H    0.993 --    68 C    0.956
   140   1 H    0.997 --    69 C    0.966
   141   1 H    0.996 --    71 C    0.963
   142   1 H    0.997 --    72 C    0.969
   143   1 H    0.997 --    73 C    0.969
   144   1 H    0.997 --    74 C    0.962
   145   1 H    0.997 --    77 C    0.978
   146   1 H    0.995 --    77 C    0.977
   147   1 H    0.997 --    77 C    0.973
 ---------------------------------------------------------------------------

Topologies differ in total number of bonds
Writing topology from bond orders to xtbtopo.mol

molecular dipole:
                 x           y           z       tot (Debye)
 q only:        4.299       1.452       0.418
   full:        3.981       1.928       0.371      11.282
molecular quadrupole (traceless):
                xx          xy          yy          xz          yz          zz
 q only:       14.562       6.907      23.100      -1.841      -6.985     -37.662
  q+dip:       12.791      11.024      23.751      -1.866     -11.732     -36.542
   full:       12.737      13.352      23.999      -1.963     -13.901     -36.736


           -------------------------------------------------
          | TOTAL ENERGY             -242.987043536110 Eh   |
          | GRADIENT NORM               0.125007054149 Eh/α |
          | HOMO-LUMO GAP               1.638398162658 eV   |
           -------------------------------------------------

------------------------------------------------------------------------
 * finished run on 2026/06/19 at 18:53:07.379     
------------------------------------------------------------------------
 total:
 * wall-time:     0 d,  0 h,  0 min,  0.343 sec
 *  cpu-time:     0 d,  0 h,  0 min,  5.221 sec
 * ratio c/w:    15.216 speedup
 SCF:
 * wall-time:     0 d,  0 h,  0 min,  0.274 sec
 *  cpu-time:     0 d,  0 h,  0 min,  4.294 sec
 * ratio c/w:    15.692 speedup

normal termination of xtb
