      -----------------------------------------------------------      
     |                   =====================                   |     
     |                           x T B                           |     
     |                   =====================                   |     
     |                         S. Grimme                         |     
     |          Mulliken Center for Theoretical Chemistry        |     
     |                    University of Bonn                     |     
      -----------------------------------------------------------      

   * xtb version 6.7.1 (edcfbbe) compiled by 'albert@albert-system' on 2024-07-22

   xtb is free software: you can redistribute it and/or modify it under
   the terms of the GNU Lesser General Public License as published by
   the Free Software Foundation, either version 3 of the License, or
   (at your option) any later version.
   
   xtb is distributed in the hope that it will be useful,
   but WITHOUT ANY WARRANTY; without even the implied warranty of
   MERCHANTABILITY or FITNESS FOR A PARTICULAR PURPOSE.  See the
   GNU Lesser General Public License for more details.
   
   Cite this work as:
   * C. Bannwarth, E. Caldeweyher, S. Ehlert, A. Hansen, P. Pracht,
     J. Seibert, S. Spicher, S. Grimme, WIREs Comput. Mol. Sci., 2020, 11,
     e01493. DOI: 10.1002/wcms.1493
   
   for GFN2-xTB:
   * C. Bannwarth, S. Ehlert and S. Grimme., J. Chem. Theory Comput., 2019,
     15, 1652-1671. DOI: 10.1021/acs.jctc.8b01176
   for GFN1-xTB:
   * S. Grimme, C. Bannwarth, P. Shushkov, J. Chem. Theory Comput., 2017,
     13, 1989-2009. DOI: 10.1021/acs.jctc.7b00118
   for GFN0-xTB:
   * P. Pracht, E. Caldeweyher, S. Ehlert, S. Grimme, ChemRxiv, 2019, preprint.
     DOI: 10.26434/chemrxiv.8326202.v1
   for GFN-FF:
   * S. Spicher and S. Grimme, Angew. Chem. Int. Ed., 2020, 59, 15665-15673.
     DOI: 10.1002/anie.202004239
   
   for ALPB and GBSA implicit solvation:
   * S. Ehlert, M. Stahn, S. Spicher, S. Grimme, J. Chem. Theory Comput.,
     2021, 17, 4250-4261. DOI: 10.1021/acs.jctc.1c00471
   
   for ddCOSMO and CPCM-X implicit solvation:
   * M. Stahn, S. Ehlert, S. Grimme, J. Phys. Chem. A,
     2023, XX, XXXX-XXXX. DOI: 10.1021/acs.jpca.3c04382
   
   for DFT-D4:
   * E. Caldeweyher, C. Bannwarth and S. Grimme, J. Chem. Phys., 2017,
     147, 034112. DOI: 10.1063/1.4993215
   * E. Caldeweyher, S. Ehlert, A. Hansen, H. Neugebauer, S. Spicher,
     C. Bannwarth and S. Grimme, J. Chem. Phys., 2019, 150, 154122.
     DOI: 10.1063/1.5090222
   * E. Caldeweyher, J.-M. Mewes, S. Ehlert and S. Grimme, Phys. Chem. Chem. Phys.
     2020, 22, 8499-8512. DOI: 10.1039/D0CP00502A
   
   for sTDA-xTB:
   * S. Grimme and C. Bannwarth, J. Chem. Phys., 2016, 145, 054103.
     DOI: 10.1063/1.4959605
   
   in the mass-spec context:
   * V. Asgeirsson, C. Bauer and S. Grimme, Chem. Sci., 2017, 8, 4879.
     DOI: 10.1039/c7sc00601b
   * J. Koopman and S. Grimme, ACS Omega 2019, 4, 12, 15120-15133.
     DOI: 10.1021/acsomega.9b02011
   
   for metadynamics refer to:
   * S. Grimme, J. Chem. Theory Comput., 2019, 155, 2847-2862
     DOI: 10.1021/acs.jctc.9b00143
   
   for SPH calculations refer to:
   * S. Spicher and S. Grimme, J. Chem. Theory Comput., 2021, 17, 1701-1714
     DOI: 10.1021/acs.jctc.0c01306
   
   for ONIOM refer to:
   * C. Plett, A. Katbashev, S. Ehlert, S. Grimme, M. Bursch,
     Phys. Chem. Chem. Phys., 2023, 25, 17860-17868. DOI: 10.1039/D3CP02178E
   
   for DIPRO refer to:
   * J. Kohn, N. Gildemeister, S. Grimme, D. Fazzi, A. Hansen,
     J. Chem. Phys., 2023, just accepted.
   
   for PTB refer to:
   * S. Grimme, M. Mueller, A. Hansen, J. Chem. Phys., 2023, 158, 124111.
     DOI: 10.1063/5.0137838
   
   with help from (in alphabetical order)
   P. Atkinson, C. Bannwarth, F. Bohle, G. Brandenburg, E. Caldeweyher
   M. Checinski, S. Dohm, S. Ehlert, S. Ehrlich, I. Gerasimov, C. Hölzer
   A. Katbashev, J. Kohn, J. Koopman, C. Lavigne, S. Lehtola, F. März, M. Müller,
   F. Musil, H. Neugebauer, J. Pisarek, C. Plett, P. Pracht, F. Pultar,
   J. Seibert, P. Shushkov, S. Spicher, M. Stahn, M. Steiner, T. Strunk,
   J. Stückrath, T. Rose, and J. Unsleber
   
 * started run on 2026/06/19 at 18:53:05.991     
   ID    Z sym.   atoms
    1    6 C      1-11, 13, 18, 20, 22-25, 29, 31, 33, 34, 36-41, 43-50,
                  53-57, 59, 64-75, 77
    2    8 O      12, 14-17, 19, 21, 26-28, 30, 32, 35, 42, 51, 52, 58,
                  60-63, 76
    3    1 H      78-147

           -------------------------------------------------
          |                Calculation Setup                |
           -------------------------------------------------

          program call               : xtb PAPU-0090/conf01.xyz --gfn 2 --alpb water --chrg 0 --uhf 0 --namespace PAPU-0090/conf01_water
          hostname                   : cpu10
          calculation namespace      : PAPU-0090/conf01_water
          coordinate file            : PAPU-0090/conf01.xyz
          omp threads                :                    16


           -------------------------------------------------
          |                 G F N 2 - x T B                 |
           -------------------------------------------------

        Reference                      10.1021/acs.jctc.8b01176
      * Hamiltonian:
        H0-scaling (s, p, d)           1.850000    2.230000    2.230000
        zeta-weighting                 0.500000
      * Dispersion:
        s8                             2.700000
        a1                             0.520000
        a2                             5.000000
        s9                             5.000000
      * Repulsion:
        kExp                           1.500000    1.000000
        rExp                           1.000000
      * Coulomb:
        alpha                          2.000000
        third order                    shell-resolved
        anisotropic                    true
        a3                             3.000000
        a5                             4.000000
        cn-shift                       1.200000
        cn-exp                         4.000000
        max-rad                        5.000000

      * Solvation model:               ALPB
        Solvent                        water
        Parameter file                 internal GFN2-xTB/ALPB
        Dielectric constant                8.0200E+01
        Reference state                gsolv [1 M gas/solution]
        Free energy shift                  1.0808E-03 Eh       6.7819E-01 kcal/mol
        Temperature                        2.9815E+02 K
        Density                            1.0000E+00 kg/L
        Solvent mass                       1.8000E+01 g/mol
        Interaction kernel             P16
        Born radius scaling (c1)           1.4744E+00
        Born radii integrator          GBOBC
        Born offset                        0.0000E+00 a0       0.0000E+00 AA
        H-bond correction              true
        Ion screening                  false
        Surface tension                    1.0000E-05 Eh       1.5569E+01 dyn/cm
        Grid points                               230 per atom

          ...................................................
          :                      SETUP                      :
          :.................................................:
          :  # basis functions                 378          :
          :  # atomic orbitals                 378          :
          :  # shells                          224          :
          :  # electrons                       422          :
          :  max. iterations                   250          :
          :  Hamiltonian                  GFN2-xTB          :
          :  restarted?                      false          :
          :  GBSA solvation                   true          :
          :  PC potential                    false          :
          :  electronic temp.          300.0000000     K    :
          :  accuracy                    1.0000000          :
          :  -> integral cutoff          0.2500000E+02      :
          :  -> integral neglect         0.1000000E-07      :
          :  -> SCF convergence          0.1000000E-05 Eh   :
          :  -> wf. convergence          0.1000000E-03 e    :
          :  Broyden damping             0.4000000          :
          :  net charge                          0          :
          :  unpaired electrons                  0          :
          ...................................................

 iter      E             dE          RMSdq      gap      omega  full diag
   1   -245.3640258 -0.245364E+03  0.465E+00    2.53       0.0  T
   2   -245.5930333 -0.229008E+00  0.256E+00    1.95       1.0  T
   3   -245.5657162  0.273171E-01  0.108E+00    1.95       1.0  T
   4   -245.6169886 -0.512724E-01  0.334E-01    1.74       1.0  T
   5   -245.6233104 -0.632181E-02  0.140E-01    1.72       1.0  T
   6   -245.6241282 -0.817836E-03  0.718E-02    1.72       1.0  T
   7   -245.6243006 -0.172341E-03  0.324E-02    1.72       1.0  T
   8   -245.6243397 -0.391419E-04  0.146E-02    1.71       1.0  T
   9   -245.6243476 -0.785916E-05  0.699E-03    1.71       1.2  T
  10   -245.6243490 -0.137436E-05  0.426E-03    1.71       1.9  T
  11   -245.6243498 -0.862600E-06  0.242E-03    1.70       3.4  T
  12   -245.6243501 -0.255986E-06  0.973E-04    1.70       8.5  T
  13   -245.6243501 -0.497245E-07  0.460E-04    1.70      17.9  T

   *** convergence criteria satisfied after 13 iterations ***

         #    Occupation            Energy/Eh            Energy/eV
      -------------------------------------------------------------
         1        2.0000           -0.7650414             -20.8178
       ...           ...                  ...                  ...
       205        2.0000           -0.4027039             -10.9581
       206        2.0000           -0.4012498             -10.9186
       207        2.0000           -0.4000336             -10.8855
       208        2.0000           -0.3990495             -10.8587
       209        2.0000           -0.3834993             -10.4355
       210        2.0000           -0.3803106             -10.3488
       211        2.0000           -0.3707420             -10.0884 (HOMO)
       212                         -0.3081199              -8.3844 (LUMO)
       213                         -0.2830736              -7.7028
       214                         -0.2472697              -6.7286
       215                         -0.2413796              -6.5683
       216                         -0.2313692              -6.2959
       ...                                ...                  ...
       378                          0.6836477              18.6030
      -------------------------------------------------------------
                  HL-Gap            0.0626222 Eh            1.7040 eV
             Fermi-level           -0.3394310 Eh           -9.2364 eV

 SCC (total)                   0 d,  0 h,  0 min,  0.272 sec
 SCC setup                      ...        0 min,  0.003 sec (  1.258%)
 Dispersion                     ...        0 min,  0.004 sec (  1.629%)
 classical contributions        ...        0 min,  0.000 sec (  0.083%)
 integral evaluation            ...        0 min,  0.012 sec (  4.452%)
 iterations                     ...        0 min,  0.210 sec ( 77.061%)
 molecular gradient             ...        0 min,  0.041 sec ( 14.884%)
 printout                       ...        0 min,  0.002 sec (  0.619%)

         :::::::::::::::::::::::::::::::::::::::::::::::::::::
         ::                     SUMMARY                     ::
         :::::::::::::::::::::::::::::::::::::::::::::::::::::
         :: total energy            -242.962301123647 Eh    ::
         :: total w/o Gsasa/hb      -242.916962155399 Eh    ::
         :: gradient norm              0.126224724463 Eh/a0 ::
         :: HOMO-LUMO gap              1.704035523756 eV    ::
         ::.................................................::
         :: SCC energy              -245.609908443402 Eh    ::
         :: -> isotropic ES            0.578427490759 Eh    ::
         :: -> anisotropic ES         -0.036880981653 Eh    ::
         :: -> anisotropic XC          0.021538997265 Eh    ::
         :: -> dispersion             -0.199845626872 Eh    ::
         :: -> Gsolv                  -0.106668295046 Eh    ::
         ::    -> Gelec               -0.061329326798 Eh    ::
         ::    -> Gsasa                0.007455169951 Eh    ::
         ::    -> Ghb                 -0.053874897897 Eh    ::
         ::    -> Gshift               0.001080759698 Eh    ::
         :: repulsion energy           2.647607319755 Eh    ::
         :: add. restraining           0.000000000000 Eh    ::
         :: total charge               0.000000000000 e     ::
         :::::::::::::::::::::::::::::::::::::::::::::::::::::

           -------------------------------------------------
          |                Property Printout                |
           -------------------------------------------------

    * Orbital Energies and Occupations

         #    Occupation            Energy/Eh            Energy/eV
      -------------------------------------------------------------
         1        2.0000           -0.7650414             -20.8178
       ...           ...                  ...                  ...
       199        2.0000           -0.4153326             -11.3018
       200        2.0000           -0.4143799             -11.2759
       201        2.0000           -0.4140227             -11.2661
       202        2.0000           -0.4111858             -11.1889
       203        2.0000           -0.4081641             -11.1067
       204        2.0000           -0.4070131             -11.0754
       205        2.0000           -0.4027039             -10.9581
       206        2.0000           -0.4012498             -10.9186
       207        2.0000           -0.4000336             -10.8855
       208        2.0000           -0.3990495             -10.8587
       209        2.0000           -0.3834993             -10.4355
       210        2.0000           -0.3803106             -10.3488
       211        2.0000           -0.3707420             -10.0884 (HOMO)
       212                         -0.3081199              -8.3844 (LUMO)
       213                         -0.2830736              -7.7028
       214                         -0.2472697              -6.7286
       215                         -0.2413796              -6.5683
       216                         -0.2313692              -6.2959
       217                         -0.2303632              -6.2685
       218                         -0.2255717              -6.1381
       219                         -0.2235194              -6.0823
       220                         -0.2226412              -6.0584
       221                         -0.1987739              -5.4089
       222                         -0.1553991              -4.2286
       ...                                ...                  ...
       378                          0.6836477              18.6030
      -------------------------------------------------------------
                  HL-Gap            0.0626222 Eh            1.7040 eV
             Fermi-level           -0.3394310 Eh           -9.2364 eV

     #   Z          covCN         q      C6AA      α(0)
     1   6 C        2.840     0.143    24.888     8.176
     2   6 C        2.975    -0.027    28.679     8.784
     3   6 C        2.964    -0.005    28.138     8.701
     4   6 C        2.928    -0.080    29.989     8.981
     5   6 C        2.836     0.146    24.822     8.165
     6   6 C        2.921    -0.113    30.860     9.110
     7   6 C        3.751     0.101    18.980     6.213
     8   6 C        3.723     0.094    19.126     6.245
     9   6 C        3.777     0.097    19.009     6.212
    10   6 C        3.749     0.096    19.054     6.226
    11   6 C        3.741     0.088    19.200     6.252
    12   8 O        1.696    -0.343    19.766     6.002
    13   6 C        3.681     0.076    19.511     6.326
    14   8 O        1.653    -0.513    23.179     6.499
    15   8 O        1.651    -0.467    22.203     6.361
    16   8 O        1.698    -0.340    19.716     5.995
    17   8 O        1.702    -0.292    18.861     5.864
    18   6 C        3.676     0.071    19.614     6.345
    19   8 O        1.654    -0.488    22.634     6.422
    20   6 C        3.654     0.252    16.983     5.917
    21   8 O        1.695    -0.365    20.160     6.062
    22   6 C        3.752     0.110    18.837     6.189
    23   6 C        3.721     0.094    19.138     6.248
    24   6 C        3.722     0.086    19.263     6.268
    25   6 C        3.753     0.086    19.201     6.249
    26   8 O        1.654    -0.487    22.613     6.419
    27   8 O        1.699    -0.322    19.390     5.945
    28   8 O        1.653    -0.496    22.803     6.446
    29   6 C        3.726     0.067    19.550     6.313
    30   8 O        1.702    -0.271    18.499     5.807
    31   6 C        2.748     0.360    20.887     7.483
    32   8 O        0.857    -0.462    22.950     6.423
    33   6 C        2.750     0.357    20.936     7.492
    34   6 C        2.896    -0.088    30.195     9.010
    35   8 O        0.858    -0.503    23.852     6.548
    36   6 C        2.905     0.004    27.930     8.666
    37   6 C        2.897    -0.044    29.098     8.844
    38   6 C        2.896    -0.009    28.241     8.713
    39   6 C        3.806    -0.076    21.940     6.668
    40   6 C        3.728     0.122    18.690     6.172
    41   6 C        2.896    -0.068    29.689     8.934
    42   8 O        1.652    -0.519    23.304     6.517
    43   6 C        2.898    -0.035    28.880     8.811
    44   6 C        2.900    -0.051    29.277     8.872
    45   6 C        2.895    -0.036    28.885     8.812
    46   6 C        3.805    -0.060    21.659     6.625
    47   6 C        3.801    -0.063    21.709     6.634
    48   6 C        3.800    -0.057    21.595     6.616
    49   6 C        3.799    -0.051    21.495     6.601
    50   6 C        3.750    -0.103    22.527     6.769
    51   8 O        1.657    -0.453    21.905     6.318
    52   8 O        1.657    -0.453    21.897     6.317
    53   6 C        3.648     0.236    17.217     5.962
    54   6 C        3.722     0.089    19.209     6.259
    55   6 C        3.723     0.100    19.036     6.231
    56   6 C        3.722     0.091    19.178     6.254
    57   6 C        3.739     0.105    18.927     6.208
    58   8 O        1.697    -0.362    20.113     6.055
    59   6 C        3.675     0.070    19.632     6.349
    60   8 O        1.653    -0.492    22.731     6.436
    61   8 O        1.654    -0.489    22.649     6.424
    62   8 O        1.654    -0.495    22.781     6.443
    63   8 O        1.652    -0.472    22.304     6.375
    64   6 C        2.974    -0.019    28.487     8.755
    65   6 C        2.926    -0.024    28.614     8.772
    66   6 C        2.927    -0.033    28.821     8.804
    67   6 C        2.974     0.024    27.455     8.595
    68   6 C        2.927    -0.033    28.831     8.806
    69   6 C        2.923    -0.020    28.505     8.755
    70   6 C        2.972    -0.011    28.285     8.724
    71   6 C        2.925    -0.038    28.944     8.823
    72   6 C        2.920    -0.044    29.089     8.845
    73   6 C        2.920    -0.034    28.850     8.808
    74   6 C        2.919    -0.064    29.602     8.922
    75   6 C        2.865     0.136    25.037     8.202
    76   8 O        1.702    -0.299    18.984     5.883
    77   6 C        3.648     0.028    20.420     6.492
    78   1 H        0.926     0.064     2.149     2.292
    79   1 H        0.926     0.069     2.092     2.262
    80   1 H        0.924     0.041     2.435     2.440
    81   1 H        0.923     0.073     2.050     2.239
    82   1 H        0.924     0.052     2.295     2.369
    83   1 H        0.923     0.084     1.938     2.177
    84   1 H        0.923     0.051     2.302     2.373
    85   1 H        0.924     0.039     2.459     2.452
    86   1 H        0.924     0.057     2.237     2.339
    87   1 H        0.804     0.361     0.564     1.180
    88   1 H        0.802     0.317     0.672     1.288
    89   1 H        0.924     0.065     2.146     2.291
    90   1 H        0.924     0.054     2.271     2.357
    91   1 H        0.803     0.355     0.578     1.194
    92   1 H        0.923    -0.000     3.060     2.736
    93   1 H        0.923     0.040     2.455     2.450
    94   1 H        0.923     0.055     2.263     2.352
    95   1 H        0.923     0.060     2.195     2.317
    96   1 H        0.923     0.089     1.889     2.149
    97   1 H        0.804     0.370     0.544     1.159
    98   1 H        0.803     0.379     0.526     1.139
    99   1 H        0.924     0.100     1.781     2.087
   100   1 H        0.924     0.085     1.928     2.172
   101   1 H        0.926     0.082     1.963     2.191
   102   1 H        0.926     0.077     2.013     2.218
   103   1 H        0.926     0.072     2.059     2.244
   104   1 H        0.926     0.065     2.142     2.289
   105   1 H        0.924     0.072     2.067     2.248
   106   1 H        0.924     0.090     1.877     2.142
   107   1 H        0.923     0.022     2.703     2.571
   108   1 H        0.926     0.037     2.486     2.465
   109   1 H        0.804     0.356     0.574     1.190
   110   1 H        0.926     0.042     2.417     2.431
   111   1 H        0.926     0.044     2.393     2.419
   112   1 H        0.926     0.032     2.555     2.500
   113   1 H        0.924     0.050     2.326     2.385
   114   1 H        0.924     0.034     2.530     2.488
   115   1 H        0.924     0.051     2.310     2.377
   116   1 H        0.924     0.033     2.538     2.491
   117   1 H        0.924     0.022     2.700     2.570
   118   1 H        0.924     0.028     2.609     2.526
   119   1 H        0.924     0.018     2.765     2.600
   120   1 H        0.923     0.021     2.726     2.582
   121   1 H        0.924     0.027     2.626     2.534
   122   1 H        0.924     0.040     2.443     2.445
   123   1 H        0.924     0.035     2.518     2.481
   124   1 H        0.804     0.381     0.520     1.133
   125   1 H        0.804     0.381     0.522     1.135
   126   1 H        0.923     0.005     2.976     2.698
   127   1 H        0.923     0.062     2.181     2.310
   128   1 H        0.923     0.031     2.574     2.509
   129   1 H        0.923     0.052     2.301     2.372
   130   1 H        0.923     0.010     2.896     2.661
   131   1 H        0.924     0.058     2.223     2.332
   132   1 H        0.924     0.089     1.890     2.150
   133   1 H        0.803     0.379     0.526     1.139
   134   1 H        0.804     0.378     0.527     1.141
   135   1 H        0.804     0.369     0.546     1.161
   136   1 H        0.801     0.310     0.692     1.307
   137   1 H        0.926     0.053     2.283     2.363
   138   1 H        0.926     0.060     2.197     2.318
   139   1 H        0.926     0.079     1.992     2.207
   140   1 H        0.926     0.051     2.304     2.374
   141   1 H        0.926     0.052     2.290     2.367
   142   1 H        0.926     0.047     2.353     2.399
   143   1 H        0.926     0.052     2.298     2.371
   144   1 H        0.926     0.055     2.253     2.347
   145   1 H        0.924     0.053     2.281     2.362
   146   1 H        0.924     0.053     2.277     2.360
   147   1 H        0.924     0.072     2.062     2.246

 Mol. C6AA /au·bohr⁶  :     216425.936250
 Mol. C8AA /au·bohr⁸  :    4964358.505012
 Mol. α(0) /au        :        702.728188


Wiberg/Mayer (AO) data.
largest (>0.10) Wiberg bond orders for each atom

 ---------------------------------------------------------------------------
     #   Z sym  total        # sym  WBO       # sym  WBO       # sym  WBO
 ---------------------------------------------------------------------------
     1   6 C    3.942 --     6 C    1.386     2 C    1.337    51 O    1.075
     2   6 C    3.977 --     3 C    1.393     1 C    1.337     7 C    0.993
     3   6 C    3.986 --     4 C    1.425     2 C    1.393    13 C    1.000
     4   6 C    3.982 --     3 C    1.425     5 C    1.362    78 H    0.964
     5   6 C    3.945 --     6 C    1.379     4 C    1.362    52 O    1.076
     6   6 C    3.974 --     1 C    1.386     5 C    1.379    79 H    0.960
     7   6 C    3.941 --     2 C    0.993     8 C    0.950    12 O    0.949
                            80 H    0.947
     8   6 C    3.949 --    15 O    1.001     9 C    0.957    81 H    0.953
                             7 C    0.950
     9   6 C    3.922 --    10 C    0.968     8 C    0.957    17 O    0.938
                            82 H    0.936
    10   6 C    3.928 --     9 C    0.968    11 C    0.958    16 O    0.954
                            83 H    0.954
    11   6 C    3.947 --    18 C    0.983    12 O    0.973    10 C    0.958
                            84 H    0.948
    12   8 O    2.057 --    11 C    0.973     7 C    0.949
    13   6 C    3.950 --     3 C    1.000    14 O    0.987    85 H    0.968
                            86 H    0.945
    14   8 O    1.922 --    13 C    0.987    87 H    0.856
    15   8 O    1.960 --     8 C    1.001    88 H    0.851
    16   8 O    2.076 --    20 C    0.981    10 C    0.954
    17   8 O    2.271 --    33 C    1.099     9 C    0.938    35 O    0.142
    18   6 C    3.958 --    19 O    1.010    11 C    0.983    89 H    0.967
                            90 H    0.966
    19   8 O    1.924 --    18 C    1.010    91 H    0.854
    20   6 C    3.923 --    16 O    0.981    25 C    0.956    21 O    0.954
                            92 H    0.937
    21   8 O    2.061 --    20 C    0.954    22 C    0.947
    22   6 C    3.933 --    29 C    0.977    23 C    0.970    21 O    0.947
                            93 H    0.946
    23   6 C    3.966 --    28 O    1.006    22 C    0.970    24 C    0.966
                            94 H    0.957
    24   6 C    3.959 --    26 O    1.001    23 C    0.966    25 C    0.961
                            95 H    0.946
    25   6 C    3.937 --    27 O    0.967    24 C    0.961    20 C    0.956
                            96 H    0.953
    26   8 O    1.927 --    24 C    1.001    97 H    0.845
    27   8 O    2.091 --    53 C    0.982    25 C    0.967
    28   8 O    1.914 --    23 C    1.006    98 H    0.834
    29   6 C    3.917 --    22 C    0.977    99 H    0.962    30 O    0.956
                           100 H    0.952
    30   8 O    2.286 --    31 C    1.106    29 C    0.956    32 O    0.151
    31   6 C    3.883 --    32 O    1.679    30 O    1.106    64 C    0.997
    32   8 O    2.015 --    31 C    1.679    30 O    0.151
    33   6 C    3.892 --    35 O    1.603    17 O    1.099    34 C    1.080
    34   6 C    3.966 --    36 C    1.708    33 C    1.080   101 H    0.961
                            38 C    0.110
    35   8 O    1.979 --    33 C    1.603    17 O    0.142
    36   6 C    3.970 --    34 C    1.708    37 C    1.162   102 H    0.951
    37   6 C    3.985 --    38 C    1.775    36 C    1.162   103 H    0.958
    38   6 C    3.971 --    37 C    1.775    39 C    1.045   104 H    0.960
                            34 C    0.110
    39   6 C    3.988 --    38 C    1.045    40 C    0.968   105 H    0.963
                           106 H    0.936
    40   6 C    3.950 --    41 C    1.000    42 O    0.972    39 C    0.968
                           107 H    0.965
    41   6 C    3.986 --    43 C    1.836    40 C    1.000   108 H    0.961
                            45 C    0.130
    42   8 O    1.900 --    40 C    0.972   109 H    0.858
    43   6 C    3.991 --    41 C    1.836    44 C    1.124   110 H    0.962
    44   6 C    3.989 --    45 C    1.828    43 C    1.124   111 H    0.953
    45   6 C    3.985 --    44 C    1.828    46 C    1.028   112 H    0.967
                            41 C    0.130
    46   6 C    3.996 --    45 C    1.028    47 C    0.991   114 H    0.979
                           113 H    0.957
    47   6 C    3.993 --    48 C    1.008    46 C    0.991   116 H    0.975
                           115 H    0.966
    48   6 C    3.996 --    47 C    1.008    49 C    1.007   118 H    0.977
                           117 H    0.975
    49   6 C    3.996 --    50 C    1.021    48 C    1.007   119 H    0.974
                           120 H    0.971
    50   6 C    3.996 --    49 C    1.021   123 H    0.987   122 H    0.984
                           121 H    0.983
    51   8 O    2.078 --     1 C    1.075   124 H    0.834
    52   8 O    2.071 --     5 C    1.076   125 H    0.837
    53   6 C    3.921 --    27 O    0.982    54 C    0.955    58 O    0.953
                           126 H    0.945
    54   6 C    3.957 --    62 O    0.999    55 C    0.969   127 H    0.956
                            53 C    0.955
    55   6 C    3.966 --    61 O    1.003    54 C    0.969    56 C    0.967
                           128 H    0.960
    56   6 C    3.967 --    60 O    1.008    55 C    0.967    57 C    0.967
                           129 H    0.957
    57   6 C    3.936 --    59 C    0.983    56 C    0.967   130 H    0.949
                            58 O    0.949
    58   8 O    2.062 --    53 C    0.953    57 C    0.949
    59   6 C    3.949 --    63 O    1.002    57 C    0.983   132 H    0.964
                           131 H    0.961
    60   8 O    1.916 --    56 C    1.008   133 H    0.834
    61   8 O    1.925 --    55 C    1.003   134 H    0.840
    62   8 O    1.918 --    54 C    0.999   135 H    0.846
    63   8 O    1.939 --    59 C    1.002   136 H    0.850
    64   6 C    3.972 --    69 C    1.378    65 C    1.374    31 C    0.997
    65   6 C    3.987 --    66 C    1.466    64 C    1.374   137 H    0.960
                            68 C    0.101
    66   6 C    3.988 --    65 C    1.466    67 C    1.373   138 H    0.960
                            69 C    0.102
    67   6 C    3.987 --    68 C    1.374    66 C    1.373    70 C    1.065
    68   6 C    3.986 --    69 C    1.463    67 C    1.374   139 H    0.956
                            65 C    0.101
    69   6 C    3.986 --    68 C    1.463    64 C    1.378   140 H    0.967
                            66 C    0.102
    70   6 C    3.985 --    71 C    1.390    75 C    1.314    67 C    1.065
    71   6 C    3.988 --    72 C    1.451    70 C    1.390   141 H    0.963
    72   6 C    3.990 --    71 C    1.451    73 C    1.420   142 H    0.969
    73   6 C    3.983 --    74 C    1.448    72 C    1.420   143 H    0.969
    74   6 C    3.988 --    73 C    1.448    75 C    1.380   144 H    0.962
    75   6 C    3.929 --    74 C    1.380    70 C    1.314    76 O    1.034
    76   8 O    2.211 --    75 C    1.034    77 C    0.972
    77   6 C    3.933 --   146 H    0.978   147 H    0.976   145 H    0.973
                            76 O    0.972
    78   1 H    0.995 --     4 C    0.964
    79   1 H    0.994 --     6 C    0.960
    80   1 H    0.998 --     7 C    0.947
    81   1 H    0.994 --     8 C    0.953
    82   1 H    0.997 --     9 C    0.936
    83   1 H    0.992 --    10 C    0.954
    84   1 H    0.997 --    11 C    0.948
    85   1 H    0.998 --    13 C    0.968
    86   1 H    0.997 --    13 C    0.945
    87   1 H    0.870 --    14 O    0.856
    88   1 H    0.899 --    15 O    0.851
    89   1 H    0.995 --    18 C    0.967
    90   1 H    0.997 --    18 C    0.966
    91   1 H    0.874 --    19 O    0.854
    92   1 H    1.000 --    20 C    0.937
    93   1 H    0.998 --    22 C    0.946
    94   1 H    0.997 --    23 C    0.957
    95   1 H    0.996 --    24 C    0.946
    96   1 H    0.991 --    25 C    0.953
    97   1 H    0.863 --    26 O    0.845
    98   1 H    0.857 --    28 O    0.834
    99   1 H    0.989 --    29 C    0.962
   100   1 H    0.992 --    29 C    0.952
   101   1 H    0.993 --    34 C    0.961
   102   1 H    0.994 --    36 C    0.951
   103   1 H    0.995 --    37 C    0.958
   104   1 H    0.996 --    38 C    0.960
   105   1 H    0.994 --    39 C    0.963
   106   1 H    0.981 --    39 C    0.936
   107   1 H    0.999 --    40 C    0.965
   108   1 H    0.998 --    41 C    0.961
   109   1 H    0.872 --    42 O    0.858
   110   1 H    0.998 --    43 C    0.962
   111   1 H    0.998 --    44 C    0.953
   112   1 H    0.999 --    45 C    0.967
   113   1 H    0.997 --    46 C    0.957
   114   1 H    0.999 --    46 C    0.979
   115   1 H    0.997 --    47 C    0.966
   116   1 H    0.999 --    47 C    0.975
   117   1 H    0.999 --    48 C    0.975
   118   1 H    0.999 --    48 C    0.977
   119   1 H    1.000 --    49 C    0.974
   120   1 H    0.999 --    49 C    0.971
   121   1 H    0.999 --    50 C    0.983
   122   1 H    0.998 --    50 C    0.984
   123   1 H    0.999 --    50 C    0.987
   124   1 H    0.854 --    51 O    0.834
   125   1 H    0.855 --    52 O    0.837
   126   1 H    1.000 --    53 C    0.945
   127   1 H    0.996 --    54 C    0.956
   128   1 H    0.999 --    55 C    0.960
   129   1 H    0.997 --    56 C    0.957
   130   1 H    1.000 --    57 C    0.949
   131   1 H    0.996 --    59 C    0.961
   132   1 H    0.992 --    59 C    0.964
   133   1 H    0.857 --    60 O    0.834
   134   1 H    0.857 --    61 O    0.840
   135   1 H    0.864 --    62 O    0.846
   136   1 H    0.904 --    63 O    0.850
   137   1 H    0.997 --    65 C    0.960
   138   1 H    0.995 --    66 C    0.960
   139   1 H    0.993 --    68 C    0.956
   140   1 H    0.997 --    69 C    0.967
   141   1 H    0.997 --    71 C    0.963
   142   1 H    0.997 --    72 C    0.969
   143   1 H    0.997 --    73 C    0.969
   144   1 H    0.996 --    74 C    0.962
   145   1 H    0.997 --    77 C    0.973
   146   1 H    0.997 --    77 C    0.978
   147   1 H    0.994 --    77 C    0.976
 ---------------------------------------------------------------------------

Topologies differ in total number of bonds
Writing topology from bond orders to xtbtopo.mol

molecular dipole:
                 x           y           z       tot (Debye)
 q only:        3.930       0.813       1.189
   full:        3.555       1.165       1.385      10.138
molecular quadrupole (traceless):
                xx          xy          yy          xz          yz          zz
 q only:       21.300      -0.892      16.329     -13.514      16.585     -37.629
  q+dip:       17.432       0.195      15.109     -16.670      22.041     -32.541
   full:       18.702       2.872      14.531     -16.583      19.598     -33.233


           -------------------------------------------------
          | TOTAL ENERGY             -242.962301123647 Eh   |
          | GRADIENT NORM               0.126224724463 Eh/α |
          | HOMO-LUMO GAP               1.704035523756 eV   |
           -------------------------------------------------

------------------------------------------------------------------------
 * finished run on 2026/06/19 at 18:53:06.335     
------------------------------------------------------------------------
 total:
 * wall-time:     0 d,  0 h,  0 min,  0.344 sec
 *  cpu-time:     0 d,  0 h,  0 min,  4.989 sec
 * ratio c/w:    14.518 speedup
 SCF:
 * wall-time:     0 d,  0 h,  0 min,  0.273 sec
 *  cpu-time:     0 d,  0 h,  0 min,  4.299 sec
 * ratio c/w:    15.732 speedup

normal termination of xtb
