      -----------------------------------------------------------      
     |                   =====================                   |     
     |                           x T B                           |     
     |                   =====================                   |     
     |                         S. Grimme                         |     
     |          Mulliken Center for Theoretical Chemistry        |     
     |                    University of Bonn                     |     
      -----------------------------------------------------------      

   * xtb version 6.7.1 (edcfbbe) compiled by 'albert@albert-system' on 2024-07-22

   xtb is free software: you can redistribute it and/or modify it under
   the terms of the GNU Lesser General Public License as published by
   the Free Software Foundation, either version 3 of the License, or
   (at your option) any later version.
   
   xtb is distributed in the hope that it will be useful,
   but WITHOUT ANY WARRANTY; without even the implied warranty of
   MERCHANTABILITY or FITNESS FOR A PARTICULAR PURPOSE.  See the
   GNU Lesser General Public License for more details.
   
   Cite this work as:
   * C. Bannwarth, E. Caldeweyher, S. Ehlert, A. Hansen, P. Pracht,
     J. Seibert, S. Spicher, S. Grimme, WIREs Comput. Mol. Sci., 2020, 11,
     e01493. DOI: 10.1002/wcms.1493
   
   for GFN2-xTB:
   * C. Bannwarth, S. Ehlert and S. Grimme., J. Chem. Theory Comput., 2019,
     15, 1652-1671. DOI: 10.1021/acs.jctc.8b01176
   for GFN1-xTB:
   * S. Grimme, C. Bannwarth, P. Shushkov, J. Chem. Theory Comput., 2017,
     13, 1989-2009. DOI: 10.1021/acs.jctc.7b00118
   for GFN0-xTB:
   * P. Pracht, E. Caldeweyher, S. Ehlert, S. Grimme, ChemRxiv, 2019, preprint.
     DOI: 10.26434/chemrxiv.8326202.v1
   for GFN-FF:
   * S. Spicher and S. Grimme, Angew. Chem. Int. Ed., 2020, 59, 15665-15673.
     DOI: 10.1002/anie.202004239
   
   for ALPB and GBSA implicit solvation:
   * S. Ehlert, M. Stahn, S. Spicher, S. Grimme, J. Chem. Theory Comput.,
     2021, 17, 4250-4261. DOI: 10.1021/acs.jctc.1c00471
   
   for ddCOSMO and CPCM-X implicit solvation:
   * M. Stahn, S. Ehlert, S. Grimme, J. Phys. Chem. A,
     2023, XX, XXXX-XXXX. DOI: 10.1021/acs.jpca.3c04382
   
   for DFT-D4:
   * E. Caldeweyher, C. Bannwarth and S. Grimme, J. Chem. Phys., 2017,
     147, 034112. DOI: 10.1063/1.4993215
   * E. Caldeweyher, S. Ehlert, A. Hansen, H. Neugebauer, S. Spicher,
     C. Bannwarth and S. Grimme, J. Chem. Phys., 2019, 150, 154122.
     DOI: 10.1063/1.5090222
   * E. Caldeweyher, J.-M. Mewes, S. Ehlert and S. Grimme, Phys. Chem. Chem. Phys.
     2020, 22, 8499-8512. DOI: 10.1039/D0CP00502A
   
   for sTDA-xTB:
   * S. Grimme and C. Bannwarth, J. Chem. Phys., 2016, 145, 054103.
     DOI: 10.1063/1.4959605
   
   in the mass-spec context:
   * V. Asgeirsson, C. Bauer and S. Grimme, Chem. Sci., 2017, 8, 4879.
     DOI: 10.1039/c7sc00601b
   * J. Koopman and S. Grimme, ACS Omega 2019, 4, 12, 15120-15133.
     DOI: 10.1021/acsomega.9b02011
   
   for metadynamics refer to:
   * S. Grimme, J. Chem. Theory Comput., 2019, 155, 2847-2862
     DOI: 10.1021/acs.jctc.9b00143
   
   for SPH calculations refer to:
   * S. Spicher and S. Grimme, J. Chem. Theory Comput., 2021, 17, 1701-1714
     DOI: 10.1021/acs.jctc.0c01306
   
   for ONIOM refer to:
   * C. Plett, A. Katbashev, S. Ehlert, S. Grimme, M. Bursch,
     Phys. Chem. Chem. Phys., 2023, 25, 17860-17868. DOI: 10.1039/D3CP02178E
   
   for DIPRO refer to:
   * J. Kohn, N. Gildemeister, S. Grimme, D. Fazzi, A. Hansen,
     J. Chem. Phys., 2023, just accepted.
   
   for PTB refer to:
   * S. Grimme, M. Mueller, A. Hansen, J. Chem. Phys., 2023, 158, 124111.
     DOI: 10.1063/5.0137838
   
   with help from (in alphabetical order)
   P. Atkinson, C. Bannwarth, F. Bohle, G. Brandenburg, E. Caldeweyher
   M. Checinski, S. Dohm, S. Ehlert, S. Ehrlich, I. Gerasimov, C. Hölzer
   A. Katbashev, J. Kohn, J. Koopman, C. Lavigne, S. Lehtola, F. März, M. Müller,
   F. Musil, H. Neugebauer, J. Pisarek, C. Plett, P. Pracht, F. Pultar,
   J. Seibert, P. Shushkov, S. Spicher, M. Stahn, M. Steiner, T. Strunk,
   J. Stückrath, T. Rose, and J. Unsleber
   
 * started run on 2026/06/19 at 18:53:06.696     
   ID    Z sym.   atoms
    1    6 C      1-11, 13, 18, 20, 22-25, 29, 31, 33, 34, 36-41, 43-50,
                  53-57, 59, 64-75, 77
    2    8 O      12, 14-17, 19, 21, 26-28, 30, 32, 35, 42, 51, 52, 58,
                  60-63, 76
    3    1 H      78-147

           -------------------------------------------------
          |                Calculation Setup                |
           -------------------------------------------------

          program call               : xtb PAPU-0090/conf02.xyz --gfn 2 --alpb water --chrg 0 --uhf 0 --namespace PAPU-0090/conf02_water
          hostname                   : cpu10
          calculation namespace      : PAPU-0090/conf02_water
          coordinate file            : PAPU-0090/conf02.xyz
          omp threads                :                    16


           -------------------------------------------------
          |                 G F N 2 - x T B                 |
           -------------------------------------------------

        Reference                      10.1021/acs.jctc.8b01176
      * Hamiltonian:
        H0-scaling (s, p, d)           1.850000    2.230000    2.230000
        zeta-weighting                 0.500000
      * Dispersion:
        s8                             2.700000
        a1                             0.520000
        a2                             5.000000
        s9                             5.000000
      * Repulsion:
        kExp                           1.500000    1.000000
        rExp                           1.000000
      * Coulomb:
        alpha                          2.000000
        third order                    shell-resolved
        anisotropic                    true
        a3                             3.000000
        a5                             4.000000
        cn-shift                       1.200000
        cn-exp                         4.000000
        max-rad                        5.000000

      * Solvation model:               ALPB
        Solvent                        water
        Parameter file                 internal GFN2-xTB/ALPB
        Dielectric constant                8.0200E+01
        Reference state                gsolv [1 M gas/solution]
        Free energy shift                  1.0808E-03 Eh       6.7819E-01 kcal/mol
        Temperature                        2.9815E+02 K
        Density                            1.0000E+00 kg/L
        Solvent mass                       1.8000E+01 g/mol
        Interaction kernel             P16
        Born radius scaling (c1)           1.4744E+00
        Born radii integrator          GBOBC
        Born offset                        0.0000E+00 a0       0.0000E+00 AA
        H-bond correction              true
        Ion screening                  false
        Surface tension                    1.0000E-05 Eh       1.5569E+01 dyn/cm
        Grid points                               230 per atom

          ...................................................
          :                      SETUP                      :
          :.................................................:
          :  # basis functions                 378          :
          :  # atomic orbitals                 378          :
          :  # shells                          224          :
          :  # electrons                       422          :
          :  max. iterations                   250          :
          :  Hamiltonian                  GFN2-xTB          :
          :  restarted?                      false          :
          :  GBSA solvation                   true          :
          :  PC potential                    false          :
          :  electronic temp.          300.0000000     K    :
          :  accuracy                    1.0000000          :
          :  -> integral cutoff          0.2500000E+02      :
          :  -> integral neglect         0.1000000E-07      :
          :  -> SCF convergence          0.1000000E-05 Eh   :
          :  -> wf. convergence          0.1000000E-03 e    :
          :  Broyden damping             0.4000000          :
          :  net charge                          0          :
          :  unpaired electrons                  0          :
          ...................................................

 iter      E             dE          RMSdq      gap      omega  full diag
   1   -245.3669594 -0.245367E+03  0.462E+00    2.50       0.0  T
   2   -245.5979322 -0.230973E+00  0.253E+00    1.94       1.0  T
   3   -245.5770290  0.209031E-01  0.104E+00    1.92       1.0  T
   4   -245.6210026 -0.439736E-01  0.322E-01    1.71       1.0  T
   5   -245.6266146 -0.561194E-02  0.139E-01    1.71       1.0  T
   6   -245.6273771 -0.762542E-03  0.729E-02    1.71       1.0  T
   7   -245.6275714 -0.194255E-03  0.334E-02    1.71       1.0  T
   8   -245.6276152 -0.438651E-04  0.152E-02    1.70       1.0  T
   9   -245.6276232 -0.791129E-05  0.788E-03    1.70       1.0  T
  10   -245.6276255 -0.235650E-05  0.472E-03    1.70       1.7  T
  11   -245.6276266 -0.111070E-05  0.235E-03    1.69       3.5  T
  12   -245.6276268 -0.198123E-06  0.915E-04    1.69       9.0  T
  13   -245.6276269 -0.413897E-07  0.424E-04    1.69      19.4  T

   *** convergence criteria satisfied after 13 iterations ***

         #    Occupation            Energy/Eh            Energy/eV
      -------------------------------------------------------------
         1        2.0000           -0.7662463             -20.8506
       ...           ...                  ...                  ...
       205        2.0000           -0.4047317             -11.0133
       206        2.0000           -0.4030530             -10.9676
       207        2.0000           -0.4003243             -10.8934
       208        2.0000           -0.3985017             -10.8438
       209        2.0000           -0.3852997             -10.4845
       210        2.0000           -0.3821877             -10.3999
       211        2.0000           -0.3694594             -10.0535 (HOMO)
       212                         -0.3072067              -8.3595 (LUMO)
       213                         -0.2888679              -7.8605
       214                         -0.2438922              -6.6366
       215                         -0.2374971              -6.4626
       216                         -0.2321886              -6.3182
       ...                                ...                  ...
       378                          0.6817231              18.5506
      -------------------------------------------------------------
                  HL-Gap            0.0622528 Eh            1.6940 eV
             Fermi-level           -0.3383331 Eh           -9.2065 eV

 SCC (total)                   0 d,  0 h,  0 min,  0.275 sec
 SCC setup                      ...        0 min,  0.004 sec (  1.403%)
 Dispersion                     ...        0 min,  0.005 sec (  1.661%)
 classical contributions        ...        0 min,  0.000 sec (  0.083%)
 integral evaluation            ...        0 min,  0.013 sec (  4.577%)
 iterations                     ...        0 min,  0.211 sec ( 76.892%)
 molecular gradient             ...        0 min,  0.040 sec ( 14.466%)
 printout                       ...        0 min,  0.002 sec (  0.904%)

         :::::::::::::::::::::::::::::::::::::::::::::::::::::
         ::                     SUMMARY                     ::
         :::::::::::::::::::::::::::::::::::::::::::::::::::::
         :: total energy            -242.965843682082 Eh    ::
         :: total w/o Gsasa/hb      -242.920761995194 Eh    ::
         :: gradient norm              0.126185127917 Eh/a0 ::
         :: HOMO-LUMO gap              1.693984062487 eV    ::
         ::.................................................::
         :: SCC energy              -245.612546382685 Eh    ::
         :: -> isotropic ES            0.579873753567 Eh    ::
         :: -> anisotropic ES         -0.036208329069 Eh    ::
         :: -> anisotropic XC          0.021177225352 Eh    ::
         :: -> dispersion             -0.202710117933 Eh    ::
         :: -> Gsolv                  -0.106743639006 Eh    ::
         ::    -> Gelec               -0.061661952118 Eh    ::
         ::    -> Gsasa                0.007357728029 Eh    ::
         ::    -> Ghb                 -0.053520174615 Eh    ::
         ::    -> Gshift               0.001080759698 Eh    ::
         :: repulsion energy           2.646702700603 Eh    ::
         :: add. restraining           0.000000000000 Eh    ::
         :: total charge              -0.000000000000 e     ::
         :::::::::::::::::::::::::::::::::::::::::::::::::::::

           -------------------------------------------------
          |                Property Printout                |
           -------------------------------------------------

    * Orbital Energies and Occupations

         #    Occupation            Energy/Eh            Energy/eV
      -------------------------------------------------------------
         1        2.0000           -0.7662463             -20.8506
       ...           ...                  ...                  ...
       199        2.0000           -0.4158546             -11.3160
       200        2.0000           -0.4152505             -11.2995
       201        2.0000           -0.4142482             -11.2723
       202        2.0000           -0.4140439             -11.2667
       203        2.0000           -0.4097496             -11.1499
       204        2.0000           -0.4062004             -11.0533
       205        2.0000           -0.4047317             -11.0133
       206        2.0000           -0.4030530             -10.9676
       207        2.0000           -0.4003243             -10.8934
       208        2.0000           -0.3985017             -10.8438
       209        2.0000           -0.3852997             -10.4845
       210        2.0000           -0.3821877             -10.3999
       211        2.0000           -0.3694594             -10.0535 (HOMO)
       212                         -0.3072067              -8.3595 (LUMO)
       213                         -0.2888679              -7.8605
       214                         -0.2438922              -6.6366
       215                         -0.2374971              -6.4626
       216                         -0.2321886              -6.3182
       217                         -0.2321557              -6.3173
       218                         -0.2263347              -6.1589
       219                         -0.2242102              -6.1011
       220                         -0.2240505              -6.0967
       221                         -0.1954471              -5.3184
       222                         -0.1578561              -4.2955
       ...                                ...                  ...
       378                          0.6817231              18.5506
      -------------------------------------------------------------
                  HL-Gap            0.0622528 Eh            1.6940 eV
             Fermi-level           -0.3383331 Eh           -9.2065 eV

     #   Z          covCN         q      C6AA      α(0)
     1   6 C        2.840     0.143    24.884     8.175
     2   6 C        2.975    -0.027    28.679     8.784
     3   6 C        2.964    -0.005    28.136     8.700
     4   6 C        2.927    -0.093    30.337     9.033
     5   6 C        2.836     0.146    24.823     8.165
     6   6 C        2.922    -0.099    30.502     9.057
     7   6 C        3.750     0.102    18.953     6.209
     8   6 C        3.723     0.094    19.131     6.246
     9   6 C        3.777     0.100    18.958     6.203
    10   6 C        3.749     0.097    19.045     6.224
    11   6 C        3.742     0.088    19.184     6.249
    12   8 O        1.696    -0.343    19.767     6.003
    13   6 C        3.681     0.076    19.517     6.327
    14   8 O        1.653    -0.515    23.212     6.504
    15   8 O        1.651    -0.466    22.172     6.356
    16   8 O        1.698    -0.339    19.695     5.992
    17   8 O        1.702    -0.294    18.883     5.867
    18   6 C        3.676     0.071    19.602     6.343
    19   8 O        1.654    -0.488    22.642     6.424
    20   6 C        3.655     0.252    16.974     5.915
    21   8 O        1.696    -0.365    20.175     6.064
    22   6 C        3.753     0.109    18.844     6.190
    23   6 C        3.721     0.094    19.138     6.248
    24   6 C        3.722     0.086    19.260     6.267
    25   6 C        3.752     0.086    19.202     6.249
    26   8 O        1.654    -0.487    22.614     6.420
    27   8 O        1.699    -0.323    19.395     5.946
    28   8 O        1.653    -0.496    22.809     6.447
    29   6 C        3.727     0.069    19.525     6.309
    30   8 O        1.702    -0.274    18.545     5.814
    31   6 C        2.750     0.357    20.937     7.493
    32   8 O        0.857    -0.469    23.100     6.444
    33   6 C        2.750     0.359    20.902     7.486
    34   6 C        2.897    -0.084    30.108     8.997
    35   8 O        0.858    -0.503    23.843     6.547
    36   6 C        2.904     0.007    27.873     8.657
    37   6 C        2.898    -0.041    29.007     8.831
    38   6 C        2.895    -0.008    28.224     8.710
    39   6 C        3.806    -0.074    21.912     6.664
    40   6 C        3.728     0.123    18.669     6.169
    41   6 C        2.896    -0.071    29.761     8.945
    42   8 O        1.652    -0.516    23.249     6.509
    43   6 C        2.898    -0.034    28.842     8.805
    44   6 C        2.899    -0.047    29.171     8.856
    45   6 C        2.893    -0.033    28.833     8.804
    46   6 C        3.804    -0.062    21.685     6.629
    47   6 C        3.798    -0.058    21.629     6.622
    48   6 C        3.798    -0.056    21.592     6.616
    49   6 C        3.798    -0.050    21.474     6.598
    50   6 C        3.750    -0.097    22.424     6.753
    51   8 O        1.656    -0.451    21.856     6.311
    52   8 O        1.657    -0.451    21.862     6.312
    53   6 C        3.647     0.237    17.207     5.960
    54   6 C        3.722     0.089    19.207     6.259
    55   6 C        3.723     0.100    19.033     6.230
    56   6 C        3.722     0.091    19.176     6.254
    57   6 C        3.740     0.105    18.932     6.208
    58   8 O        1.696    -0.363    20.123     6.056
    59   6 C        3.674     0.070    19.629     6.349
    60   8 O        1.653    -0.493    22.738     6.437
    61   8 O        1.654    -0.489    22.648     6.424
    62   8 O        1.654    -0.494    22.771     6.442
    63   8 O        1.652    -0.472    22.300     6.375
    64   6 C        2.975    -0.021    28.529     8.761
    65   6 C        2.925    -0.021    28.535     8.760
    66   6 C        2.926    -0.034    28.858     8.810
    67   6 C        2.974     0.027    27.390     8.585
    68   6 C        2.928    -0.032    28.803     8.801
    69   6 C        2.923    -0.020    28.498     8.754
    70   6 C        2.972    -0.012    28.299     8.726
    71   6 C        2.924    -0.037    28.930     8.821
    72   6 C        2.920    -0.044    29.087     8.844
    73   6 C        2.920    -0.034    28.849     8.808
    74   6 C        2.919    -0.065    29.619     8.925
    75   6 C        2.864     0.135    25.049     8.204
    76   8 O        1.701    -0.302    19.032     5.890
    77   6 C        3.647     0.030    20.395     6.490
    78   1 H        0.926     0.062     2.178     2.308
    79   1 H        0.926     0.074     2.044     2.235
    80   1 H        0.924     0.039     2.462     2.454
    81   1 H        0.923     0.075     2.035     2.231
    82   1 H        0.924     0.047     2.356     2.400
    83   1 H        0.923     0.084     1.941     2.179
    84   1 H        0.923     0.049     2.335     2.390
    85   1 H        0.924     0.039     2.469     2.457
    86   1 H        0.924     0.057     2.235     2.338
    87   1 H        0.804     0.359     0.567     1.183
    88   1 H        0.802     0.315     0.679     1.295
    89   1 H        0.924     0.064     2.150     2.293
    90   1 H        0.924     0.054     2.275     2.359
    91   1 H        0.803     0.356     0.575     1.191
    92   1 H        0.923    -0.001     3.080     2.745
    93   1 H        0.923     0.040     2.446     2.446
    94   1 H        0.923     0.055     2.263     2.352
    95   1 H        0.923     0.060     2.195     2.317
    96   1 H        0.923     0.089     1.888     2.149
    97   1 H        0.804     0.370     0.544     1.158
    98   1 H        0.803     0.379     0.525     1.138
    99   1 H        0.924     0.100     1.783     2.088
   100   1 H        0.924     0.082     1.959     2.189
   101   1 H        0.926     0.081     1.973     2.197
   102   1 H        0.926     0.070     2.080     2.255
   103   1 H        0.926     0.070     2.086     2.259
   104   1 H        0.926     0.063     2.163     2.300
   105   1 H        0.924     0.067     2.117     2.275
   106   1 H        0.924     0.085     1.925     2.170
   107   1 H        0.923     0.020     2.730     2.584
   108   1 H        0.926     0.044     2.390     2.417
   109   1 H        0.804     0.353     0.581     1.197
   110   1 H        0.926     0.043     2.403     2.424
   111   1 H        0.926     0.040     2.448     2.447
   112   1 H        0.926     0.031     2.568     2.506
   113   1 H        0.924     0.050     2.314     2.379
   114   1 H        0.924     0.035     2.512     2.478
   115   1 H        0.924     0.041     2.435     2.440
   116   1 H        0.923     0.034     2.530     2.487
   117   1 H        0.924     0.027     2.628     2.535
   118   1 H        0.923     0.031     2.568     2.506
   119   1 H        0.924     0.031     2.579     2.511
   120   1 H        0.923     0.013     2.838     2.634
   121   1 H        0.924     0.048     2.340     2.392
   122   1 H        0.924     0.028     2.614     2.528
   123   1 H        0.924     0.016     2.800     2.617
   124   1 H        0.804     0.380     0.522     1.135
   125   1 H        0.804     0.379     0.524     1.137
   126   1 H        0.923     0.003     3.001     2.709
   127   1 H        0.923     0.062     2.181     2.309
   128   1 H        0.923     0.031     2.576     2.510
   129   1 H        0.923     0.052     2.295     2.369
   130   1 H        0.923     0.011     2.877     2.652
   131   1 H        0.924     0.057     2.230     2.335
   132   1 H        0.924     0.088     1.896     2.153
   133   1 H        0.803     0.379     0.526     1.139
   134   1 H        0.804     0.378     0.527     1.140
   135   1 H        0.804     0.368     0.547     1.162
   136   1 H        0.801     0.310     0.692     1.307
   137   1 H        0.926     0.055     2.258     2.350
   138   1 H        0.926     0.064     2.156     2.296
   139   1 H        0.926     0.079     1.986     2.204
   140   1 H        0.926     0.050     2.320     2.382
   141   1 H        0.926     0.055     2.261     2.352
   142   1 H        0.926     0.050     2.321     2.383
   143   1 H        0.926     0.054     2.274     2.358
   144   1 H        0.926     0.057     2.240     2.340
   145   1 H        0.924     0.054     2.273     2.358
   146   1 H        0.924     0.068     2.107     2.270
   147   1 H        0.924     0.054     2.276     2.359

 Mol. C6AA /au·bohr⁶  :     216470.126149
 Mol. C8AA /au·bohr⁸  :    4964439.796168
 Mol. α(0) /au        :        702.804452


Wiberg/Mayer (AO) data.
largest (>0.10) Wiberg bond orders for each atom

 ---------------------------------------------------------------------------
     #   Z sym  total        # sym  WBO       # sym  WBO       # sym  WBO
 ---------------------------------------------------------------------------
     1   6 C    3.943 --     6 C    1.390     2 C    1.334    51 O    1.075
     2   6 C    3.977 --     3 C    1.395     1 C    1.334     7 C    0.992
     3   6 C    3.986 --     4 C    1.421     2 C    1.395    13 C    0.999
     4   6 C    3.980 --     3 C    1.421     5 C    1.364    78 H    0.962
     5   6 C    3.945 --     6 C    1.377     4 C    1.364    52 O    1.076
     6   6 C    3.978 --     1 C    1.390     5 C    1.377    79 H    0.961
     7   6 C    3.941 --     2 C    0.992     8 C    0.951    80 H    0.949
                            12 O    0.949
     8   6 C    3.950 --    15 O    1.003     9 C    0.956    81 H    0.952
                             7 C    0.951
     9   6 C    3.922 --    10 C    0.969     8 C    0.956    82 H    0.938
                            17 O    0.938
    10   6 C    3.928 --     9 C    0.969    11 C    0.958    16 O    0.954
                            83 H    0.954
    11   6 C    3.947 --    18 C    0.983    12 O    0.973    10 C    0.958
                            84 H    0.948
    12   8 O    2.057 --    11 C    0.973     7 C    0.949
    13   6 C    3.951 --     3 C    0.999    14 O    0.987    85 H    0.968
                            86 H    0.947
    14   8 O    1.916 --    13 C    0.987    87 H    0.857
    15   8 O    1.959 --     8 C    1.003    88 H    0.852
    16   8 O    2.078 --    20 C    0.982    10 C    0.954
    17   8 O    2.269 --    33 C    1.095     9 C    0.938    35 O    0.141
    18   6 C    3.958 --    19 O    1.010    11 C    0.983    89 H    0.967
                            90 H    0.966
    19   8 O    1.923 --    18 C    1.010    91 H    0.853
    20   6 C    3.923 --    16 O    0.982    25 C    0.955    21 O    0.954
                            92 H    0.937
    21   8 O    2.059 --    20 C    0.954    22 C    0.947
    22   6 C    3.932 --    29 C    0.976    23 C    0.970    21 O    0.947
                            93 H    0.946
    23   6 C    3.966 --    28 O    1.006    22 C    0.970    24 C    0.966
                            94 H    0.956
    24   6 C    3.959 --    26 O    1.001    23 C    0.966    25 C    0.961
                            95 H    0.946
    25   6 C    3.937 --    27 O    0.967    24 C    0.961    20 C    0.955
                            96 H    0.953
    26   8 O    1.927 --    24 C    1.001    97 H    0.845
    27   8 O    2.092 --    53 C    0.982    25 C    0.967
    28   8 O    1.913 --    23 C    1.006    98 H    0.834
    29   6 C    3.919 --    22 C    0.976    99 H    0.963    30 O    0.957
                           100 H    0.955
    30   8 O    2.278 --    31 C    1.099    29 C    0.957    32 O    0.145
    31   6 C    3.885 --    32 O    1.665    30 O    1.099    64 C    1.017
    32   8 O    2.006 --    31 C    1.665    30 O    0.145
    33   6 C    3.892 --    35 O    1.605    17 O    1.095    34 C    1.077
    34   6 C    3.965 --    36 C    1.703    33 C    1.077   101 H    0.959
                            38 C    0.111
    35   8 O    1.980 --    33 C    1.605    17 O    0.141
    36   6 C    3.971 --    34 C    1.703    37 C    1.162   102 H    0.951
    37   6 C    3.985 --    38 C    1.776    36 C    1.162   103 H    0.958
    38   6 C    3.969 --    37 C    1.776    39 C    1.043   104 H    0.960
                            34 C    0.111
    39   6 C    3.988 --    38 C    1.043   105 H    0.969    40 C    0.959
                           106 H    0.942
    40   6 C    3.947 --    41 C    1.001    42 O    0.972   107 H    0.962
                            39 C    0.959
    41   6 C    3.985 --    43 C    1.853    40 C    1.001   108 H    0.956
                            45 C    0.109
    42   8 O    1.903 --    40 C    0.972   109 H    0.860
    43   6 C    3.991 --    41 C    1.853    44 C    1.107   110 H    0.960
    44   6 C    3.991 --    45 C    1.840    43 C    1.107   111 H    0.958
    45   6 C    3.986 --    44 C    1.840    46 C    1.028   112 H    0.967
                            41 C    0.109
    46   6 C    3.996 --    45 C    1.028    47 C    0.992   114 H    0.978
                           113 H    0.957
    47   6 C    3.995 --    48 C    1.008    46 C    0.992   116 H    0.977
                           115 H    0.971
    48   6 C    3.995 --    47 C    1.008    49 C    1.007   117 H    0.977
                           118 H    0.975
    49   6 C    3.997 --    50 C    1.022    48 C    1.007   120 H    0.969
                           119 H    0.969
    50   6 C    3.996 --    49 C    1.022   122 H    0.984   123 H    0.981
                           121 H    0.978
    51   8 O    2.080 --     1 C    1.075   124 H    0.835
    52   8 O    2.072 --     5 C    1.076   125 H    0.838
    53   6 C    3.921 --    27 O    0.982    54 C    0.955    58 O    0.952
                           126 H    0.945
    54   6 C    3.957 --    62 O    1.000    55 C    0.969   127 H    0.955
                            53 C    0.955
    55   6 C    3.966 --    61 O    1.003    54 C    0.969    56 C    0.967
                           128 H    0.960
    56   6 C    3.967 --    60 O    1.008    55 C    0.967    57 C    0.967
                           129 H    0.957
    57   6 C    3.934 --    59 C    0.983    56 C    0.967    58 O    0.948
                           130 H    0.946
    58   8 O    2.062 --    53 C    0.952    57 C    0.948
    59   6 C    3.950 --    63 O    1.004    57 C    0.983   132 H    0.965
                           131 H    0.962
    60   8 O    1.915 --    56 C    1.008   133 H    0.834
    61   8 O    1.925 --    55 C    1.003   134 H    0.840
    62   8 O    1.918 --    54 C    1.000   135 H    0.846
    63   8 O    1.938 --    59 C    1.004   136 H    0.852
    64   6 C    3.973 --    69 C    1.371    65 C    1.367    31 C    1.017
    65   6 C    3.987 --    66 C    1.468    64 C    1.367   137 H    0.962
    66   6 C    3.988 --    65 C    1.468    67 C    1.371   138 H    0.961
    67   6 C    3.986 --    66 C    1.371    68 C    1.370    70 C    1.066
    68   6 C    3.985 --    69 C    1.470    67 C    1.370   139 H    0.956
    69   6 C    3.986 --    68 C    1.470    64 C    1.371   140 H    0.967
    70   6 C    3.985 --    71 C    1.392    75 C    1.313    67 C    1.066
    71   6 C    3.986 --    72 C    1.451    70 C    1.392   141 H    0.963
    72   6 C    3.990 --    71 C    1.451    73 C    1.421   142 H    0.969
    73   6 C    3.982 --    74 C    1.446    72 C    1.421   143 H    0.969
    74   6 C    3.987 --    73 C    1.446    75 C    1.381   144 H    0.962
    75   6 C    3.927 --    74 C    1.381    70 C    1.313    76 O    1.035
    76   8 O    2.204 --    75 C    1.035    77 C    0.974
    77   6 C    3.934 --   145 H    0.978   146 H    0.977    76 O    0.974
                           147 H    0.972
    78   1 H    0.996 --     4 C    0.962
    79   1 H    0.994 --     6 C    0.961
    80   1 H    0.998 --     7 C    0.949
    81   1 H    0.994 --     8 C    0.952
    82   1 H    0.998 --     9 C    0.938
    83   1 H    0.992 --    10 C    0.954
    84   1 H    0.998 --    11 C    0.948
    85   1 H    0.998 --    13 C    0.968
    86   1 H    0.997 --    13 C    0.947
    87   1 H    0.871 --    14 O    0.857
    88   1 H    0.901 --    15 O    0.852
    89   1 H    0.995 --    18 C    0.967
    90   1 H    0.997 --    18 C    0.966
    91   1 H    0.873 --    19 O    0.853
    92   1 H    1.000 --    20 C    0.937
    93   1 H    0.998 --    22 C    0.946
    94   1 H    0.997 --    23 C    0.956
    95   1 H    0.996 --    24 C    0.946
    96   1 H    0.991 --    25 C    0.953
    97   1 H    0.863 --    26 O    0.845
    98   1 H    0.856 --    28 O    0.834
    99   1 H    0.989 --    29 C    0.963
   100   1 H    0.993 --    29 C    0.955
   101   1 H    0.993 --    34 C    0.959
   102   1 H    0.995 --    36 C    0.951
   103   1 H    0.995 --    37 C    0.958
   104   1 H    0.996 --    38 C    0.960
   105   1 H    0.995 --    39 C    0.969
   106   1 H    0.983 --    39 C    0.942
   107   1 H    0.999 --    40 C    0.962
   108   1 H    0.998 --    41 C    0.956
   109   1 H    0.874 --    42 O    0.860
   110   1 H    0.998 --    43 C    0.960
   111   1 H    0.998 --    44 C    0.958
   112   1 H    0.999 --    45 C    0.967
   113   1 H    0.997 --    46 C    0.957
   114   1 H    0.999 --    46 C    0.978
   115   1 H    0.998 --    47 C    0.971
   116   1 H    0.998 --    47 C    0.977
   117   1 H    0.999 --    48 C    0.977
   118   1 H    0.999 --    48 C    0.975
   119   1 H    0.999 --    49 C    0.969
   120   1 H    1.000 --    49 C    0.969
   121   1 H    0.998 --    50 C    0.978
   122   1 H    0.999 --    50 C    0.984
   123   1 H    1.000 --    50 C    0.981
   124   1 H    0.855 --    51 O    0.835
   125   1 H    0.856 --    52 O    0.838
   126   1 H    1.000 --    53 C    0.945
   127   1 H    0.996 --    54 C    0.955
   128   1 H    0.999 --    55 C    0.960
   129   1 H    0.997 --    56 C    0.957
   130   1 H    1.000 --    57 C    0.946
   131   1 H    0.996 --    59 C    0.962
   132   1 H    0.992 --    59 C    0.965
   133   1 H    0.857 --    60 O    0.834
   134   1 H    0.857 --    61 O    0.840
   135   1 H    0.864 --    62 O    0.846
   136   1 H    0.904 --    63 O    0.852
   137   1 H    0.996 --    65 C    0.962
   138   1 H    0.995 --    66 C    0.961
   139   1 H    0.993 --    68 C    0.956
   140   1 H    0.997 --    69 C    0.967
   141   1 H    0.996 --    71 C    0.963
   142   1 H    0.997 --    72 C    0.969
   143   1 H    0.997 --    73 C    0.969
   144   1 H    0.996 --    74 C    0.962
   145   1 H    0.997 --    77 C    0.978
   146   1 H    0.995 --    77 C    0.977
   147   1 H    0.997 --    77 C    0.972
 ---------------------------------------------------------------------------

Topologies differ in total number of bonds
Writing topology from bond orders to xtbtopo.mol

molecular dipole:
                 x           y           z       tot (Debye)
 q only:        4.390       1.381       0.547
   full:        4.057       1.874       0.444      11.416
molecular quadrupole (traceless):
                xx          xy          yy          xz          yz          zz
 q only:       16.958       7.561      23.976      -2.398      -6.614     -40.934
  q+dip:       14.484      11.370      24.274      -2.261     -11.523     -38.758
   full:       14.423      13.690      24.522      -2.362     -13.671     -38.945


           -------------------------------------------------
          | TOTAL ENERGY             -242.965843682082 Eh   |
          | GRADIENT NORM               0.126185127917 Eh/α |
          | HOMO-LUMO GAP               1.693984062487 eV   |
           -------------------------------------------------

------------------------------------------------------------------------
 * finished run on 2026/06/19 at 18:53:07.022     
------------------------------------------------------------------------
 total:
 * wall-time:     0 d,  0 h,  0 min,  0.326 sec
 *  cpu-time:     0 d,  0 h,  0 min,  4.940 sec
 * ratio c/w:    15.169 speedup
 SCF:
 * wall-time:     0 d,  0 h,  0 min,  0.276 sec
 *  cpu-time:     0 d,  0 h,  0 min,  4.322 sec
 * ratio c/w:    15.681 speedup

normal termination of xtb
