      -----------------------------------------------------------      
     |                   =====================                   |     
     |                           x T B                           |     
     |                   =====================                   |     
     |                         S. Grimme                         |     
     |          Mulliken Center for Theoretical Chemistry        |     
     |                    University of Bonn                     |     
      -----------------------------------------------------------      

   * xtb version 6.7.1 (edcfbbe) compiled by 'albert@albert-system' on 2024-07-22

   xtb is free software: you can redistribute it and/or modify it under
   the terms of the GNU Lesser General Public License as published by
   the Free Software Foundation, either version 3 of the License, or
   (at your option) any later version.
   
   xtb is distributed in the hope that it will be useful,
   but WITHOUT ANY WARRANTY; without even the implied warranty of
   MERCHANTABILITY or FITNESS FOR A PARTICULAR PURPOSE.  See the
   GNU Lesser General Public License for more details.
   
   Cite this work as:
   * C. Bannwarth, E. Caldeweyher, S. Ehlert, A. Hansen, P. Pracht,
     J. Seibert, S. Spicher, S. Grimme, WIREs Comput. Mol. Sci., 2020, 11,
     e01493. DOI: 10.1002/wcms.1493
   
   for GFN2-xTB:
   * C. Bannwarth, S. Ehlert and S. Grimme., J. Chem. Theory Comput., 2019,
     15, 1652-1671. DOI: 10.1021/acs.jctc.8b01176
   for GFN1-xTB:
   * S. Grimme, C. Bannwarth, P. Shushkov, J. Chem. Theory Comput., 2017,
     13, 1989-2009. DOI: 10.1021/acs.jctc.7b00118
   for GFN0-xTB:
   * P. Pracht, E. Caldeweyher, S. Ehlert, S. Grimme, ChemRxiv, 2019, preprint.
     DOI: 10.26434/chemrxiv.8326202.v1
   for GFN-FF:
   * S. Spicher and S. Grimme, Angew. Chem. Int. Ed., 2020, 59, 15665-15673.
     DOI: 10.1002/anie.202004239
   
   for ALPB and GBSA implicit solvation:
   * S. Ehlert, M. Stahn, S. Spicher, S. Grimme, J. Chem. Theory Comput.,
     2021, 17, 4250-4261. DOI: 10.1021/acs.jctc.1c00471
   
   for ddCOSMO and CPCM-X implicit solvation:
   * M. Stahn, S. Ehlert, S. Grimme, J. Phys. Chem. A,
     2023, XX, XXXX-XXXX. DOI: 10.1021/acs.jpca.3c04382
   
   for DFT-D4:
   * E. Caldeweyher, C. Bannwarth and S. Grimme, J. Chem. Phys., 2017,
     147, 034112. DOI: 10.1063/1.4993215
   * E. Caldeweyher, S. Ehlert, A. Hansen, H. Neugebauer, S. Spicher,
     C. Bannwarth and S. Grimme, J. Chem. Phys., 2019, 150, 154122.
     DOI: 10.1063/1.5090222
   * E. Caldeweyher, J.-M. Mewes, S. Ehlert and S. Grimme, Phys. Chem. Chem. Phys.
     2020, 22, 8499-8512. DOI: 10.1039/D0CP00502A
   
   for sTDA-xTB:
   * S. Grimme and C. Bannwarth, J. Chem. Phys., 2016, 145, 054103.
     DOI: 10.1063/1.4959605
   
   in the mass-spec context:
   * V. Asgeirsson, C. Bauer and S. Grimme, Chem. Sci., 2017, 8, 4879.
     DOI: 10.1039/c7sc00601b
   * J. Koopman and S. Grimme, ACS Omega 2019, 4, 12, 15120-15133.
     DOI: 10.1021/acsomega.9b02011
   
   for metadynamics refer to:
   * S. Grimme, J. Chem. Theory Comput., 2019, 155, 2847-2862
     DOI: 10.1021/acs.jctc.9b00143
   
   for SPH calculations refer to:
   * S. Spicher and S. Grimme, J. Chem. Theory Comput., 2021, 17, 1701-1714
     DOI: 10.1021/acs.jctc.0c01306
   
   for ONIOM refer to:
   * C. Plett, A. Katbashev, S. Ehlert, S. Grimme, M. Bursch,
     Phys. Chem. Chem. Phys., 2023, 25, 17860-17868. DOI: 10.1039/D3CP02178E
   
   for DIPRO refer to:
   * J. Kohn, N. Gildemeister, S. Grimme, D. Fazzi, A. Hansen,
     J. Chem. Phys., 2023, just accepted.
   
   for PTB refer to:
   * S. Grimme, M. Mueller, A. Hansen, J. Chem. Phys., 2023, 158, 124111.
     DOI: 10.1063/5.0137838
   
   with help from (in alphabetical order)
   P. Atkinson, C. Bannwarth, F. Bohle, G. Brandenburg, E. Caldeweyher
   M. Checinski, S. Dohm, S. Ehlert, S. Ehrlich, I. Gerasimov, C. Hölzer
   A. Katbashev, J. Kohn, J. Koopman, C. Lavigne, S. Lehtola, F. März, M. Müller,
   F. Musil, H. Neugebauer, J. Pisarek, C. Plett, P. Pracht, F. Pultar,
   J. Seibert, P. Shushkov, S. Spicher, M. Stahn, M. Steiner, T. Strunk,
   J. Stückrath, T. Rose, and J. Unsleber
   
 * started run on 2026/06/19 at 18:53:07.393     
   ID    Z sym.   atoms
    1    6 C      1-11, 13, 18, 20, 22-25, 29, 31, 33, 34, 36-41, 43-50,
                  53-57, 59, 64-75, 77
    2    8 O      12, 14-17, 19, 21, 26-28, 30, 32, 35, 42, 51, 52, 58,
                  60-63, 76
    3    1 H      78-147

           -------------------------------------------------
          |                Calculation Setup                |
           -------------------------------------------------

          program call               : xtb PAPU-0090/conf03.xyz --gfn 2 --alpb water --chrg 0 --uhf 0 --namespace PAPU-0090/conf03_water
          hostname                   : cpu10
          calculation namespace      : PAPU-0090/conf03_water
          coordinate file            : PAPU-0090/conf03.xyz
          omp threads                :                    16


           -------------------------------------------------
          |                 G F N 2 - x T B                 |
           -------------------------------------------------

        Reference                      10.1021/acs.jctc.8b01176
      * Hamiltonian:
        H0-scaling (s, p, d)           1.850000    2.230000    2.230000
        zeta-weighting                 0.500000
      * Dispersion:
        s8                             2.700000
        a1                             0.520000
        a2                             5.000000
        s9                             5.000000
      * Repulsion:
        kExp                           1.500000    1.000000
        rExp                           1.000000
      * Coulomb:
        alpha                          2.000000
        third order                    shell-resolved
        anisotropic                    true
        a3                             3.000000
        a5                             4.000000
        cn-shift                       1.200000
        cn-exp                         4.000000
        max-rad                        5.000000

      * Solvation model:               ALPB
        Solvent                        water
        Parameter file                 internal GFN2-xTB/ALPB
        Dielectric constant                8.0200E+01
        Reference state                gsolv [1 M gas/solution]
        Free energy shift                  1.0808E-03 Eh       6.7819E-01 kcal/mol
        Temperature                        2.9815E+02 K
        Density                            1.0000E+00 kg/L
        Solvent mass                       1.8000E+01 g/mol
        Interaction kernel             P16
        Born radius scaling (c1)           1.4744E+00
        Born radii integrator          GBOBC
        Born offset                        0.0000E+00 a0       0.0000E+00 AA
        H-bond correction              true
        Ion screening                  false
        Surface tension                    1.0000E-05 Eh       1.5569E+01 dyn/cm
        Grid points                               230 per atom

          ...................................................
          :                      SETUP                      :
          :.................................................:
          :  # basis functions                 378          :
          :  # atomic orbitals                 378          :
          :  # shells                          224          :
          :  # electrons                       422          :
          :  max. iterations                   250          :
          :  Hamiltonian                  GFN2-xTB          :
          :  restarted?                      false          :
          :  GBSA solvation                   true          :
          :  PC potential                    false          :
          :  electronic temp.          300.0000000     K    :
          :  accuracy                    1.0000000          :
          :  -> integral cutoff          0.2500000E+02      :
          :  -> integral neglect         0.1000000E-07      :
          :  -> SCF convergence          0.1000000E-05 Eh   :
          :  -> wf. convergence          0.1000000E-03 e    :
          :  Broyden damping             0.4000000          :
          :  net charge                          0          :
          :  unpaired electrons                  0          :
          ...................................................

 iter      E             dE          RMSdq      gap      omega  full diag
   1   -245.3430302 -0.245343E+03  0.445E+00    2.55       0.0  T
   2   -245.5841185 -0.241088E+00  0.244E+00    1.82       1.0  T
   3   -245.5660013  0.181172E-01  0.102E+00    1.72       1.0  T
   4   -245.6048273 -0.388260E-01  0.337E-01    1.46       1.0  T
   5   -245.6119161 -0.708881E-02  0.137E-01    1.44       1.0  T
   6   -245.6127466 -0.830494E-03  0.722E-02    1.44       1.0  T
   7   -245.6129180 -0.171339E-03  0.327E-02    1.45       1.0  T
   8   -245.6129592 -0.412147E-04  0.155E-02    1.44       1.0  T
   9   -245.6129679 -0.869899E-05  0.776E-03    1.44       1.1  T
  10   -245.6129702 -0.237818E-05  0.495E-03    1.44       1.7  T
  11   -245.6129716 -0.130520E-05  0.222E-03    1.44       3.7  T
  12   -245.6129717 -0.157267E-06  0.938E-04    1.43       8.8  T
  13   -245.6129718 -0.476018E-07  0.406E-04    1.43      20.3  T

   *** convergence criteria satisfied after 13 iterations ***

         #    Occupation            Energy/Eh            Energy/eV
      -------------------------------------------------------------
         1        2.0000           -0.7803722             -21.2350
       ...           ...                  ...                  ...
       205        2.0000           -0.4078104             -11.0971
       206        2.0000           -0.4019415             -10.9374
       207        2.0000           -0.4017287             -10.9316
       208        2.0000           -0.3927175             -10.6864
       209        2.0000           -0.3805010             -10.3540
       210        2.0000           -0.3803527             -10.3499
       211        2.0000           -0.3722572             -10.1296 (HOMO)
       212                         -0.3195227              -8.6947 (LUMO)
       213                         -0.2891387              -7.8679
       214                         -0.2416014              -6.5743
       215                         -0.2355004              -6.4083
       216                         -0.2340902              -6.3699
       ...                                ...                  ...
       378                          0.6829618              18.5843
      -------------------------------------------------------------
                  HL-Gap            0.0527345 Eh            1.4350 eV
             Fermi-level           -0.3458900 Eh           -9.4121 eV

 SCC (total)                   0 d,  0 h,  0 min,  0.275 sec
 SCC setup                      ...        0 min,  0.004 sec (  1.372%)
 Dispersion                     ...        0 min,  0.005 sec (  1.692%)
 classical contributions        ...        0 min,  0.000 sec (  0.089%)
 integral evaluation            ...        0 min,  0.013 sec (  4.728%)
 iterations                     ...        0 min,  0.211 sec ( 76.782%)
 molecular gradient             ...        0 min,  0.040 sec ( 14.542%)
 printout                       ...        0 min,  0.002 sec (  0.778%)

         :::::::::::::::::::::::::::::::::::::::::::::::::::::
         ::                     SUMMARY                     ::
         :::::::::::::::::::::::::::::::::::::::::::::::::::::
         :: total energy            -242.956657513665 Eh    ::
         :: total w/o Gsasa/hb      -242.917954917339 Eh    ::
         :: gradient norm              0.124328262309 Eh/a0 ::
         :: HOMO-LUMO gap              1.434978579394 eV    ::
         ::.................................................::
         :: SCC energy              -245.603127997653 Eh    ::
         :: -> isotropic ES            0.564259738547 Eh    ::
         :: -> anisotropic ES         -0.025323648922 Eh    ::
         :: -> anisotropic XC          0.021797940127 Eh    ::
         :: -> dispersion             -0.189196818901 Eh    ::
         :: -> Gsolv                  -0.092552677818 Eh    ::
         ::    -> Gelec               -0.053850081492 Eh    ::
         ::    -> Gsasa                0.007412210533 Eh    ::
         ::    -> Ghb                 -0.047195566557 Eh    ::
         ::    -> Gshift               0.001080759698 Eh    ::
         :: repulsion energy           2.646470483988 Eh    ::
         :: add. restraining           0.000000000000 Eh    ::
         :: total charge              -0.000000000000 e     ::
         :::::::::::::::::::::::::::::::::::::::::::::::::::::

           -------------------------------------------------
          |                Property Printout                |
           -------------------------------------------------

    * Orbital Energies and Occupations

         #    Occupation            Energy/Eh            Energy/eV
      -------------------------------------------------------------
         1        2.0000           -0.7803722             -21.2350
       ...           ...                  ...                  ...
       199        2.0000           -0.4189199             -11.3994
       200        2.0000           -0.4182942             -11.3824
       201        2.0000           -0.4173505             -11.3567
       202        2.0000           -0.4163085             -11.3283
       203        2.0000           -0.4146950             -11.2844
       204        2.0000           -0.4099679             -11.1558
       205        2.0000           -0.4078104             -11.0971
       206        2.0000           -0.4019415             -10.9374
       207        2.0000           -0.4017287             -10.9316
       208        2.0000           -0.3927175             -10.6864
       209        2.0000           -0.3805010             -10.3540
       210        2.0000           -0.3803527             -10.3499
       211        2.0000           -0.3722572             -10.1296 (HOMO)
       212                         -0.3195227              -8.6947 (LUMO)
       213                         -0.2891387              -7.8679
       214                         -0.2416014              -6.5743
       215                         -0.2355004              -6.4083
       216                         -0.2340902              -6.3699
       217                         -0.2320690              -6.3149
       218                         -0.2279478              -6.2028
       219                         -0.2202636              -5.9937
       220                         -0.2200033              -5.9866
       221                         -0.1900180              -5.1707
       222                         -0.1660270              -4.5178
       ...                                ...                  ...
       378                          0.6829618              18.5843
      -------------------------------------------------------------
                  HL-Gap            0.0527345 Eh            1.4350 eV
             Fermi-level           -0.3458900 Eh           -9.4121 eV

     #   Z          covCN         q      C6AA      α(0)
     1   6 C        2.840     0.139    24.966     8.188
     2   6 C        2.971    -0.042    29.047     8.840
     3   6 C        2.965     0.007    27.852     8.656
     4   6 C        2.928    -0.077    29.932     8.972
     5   6 C        2.836     0.145    24.836     8.167
     6   6 C        2.921    -0.102    30.570     9.067
     7   6 C        3.747     0.099    19.006     6.218
     8   6 C        3.719     0.101    19.033     6.231
     9   6 C        3.754     0.104    18.926     6.203
    10   6 C        3.743     0.094    19.094     6.234
    11   6 C        3.744     0.086    19.221     6.254
    12   8 O        1.695    -0.351    19.905     6.023
    13   6 C        3.681     0.080    19.449     6.316
    14   8 O        1.652    -0.503    22.949     6.467
    15   8 O        1.651    -0.498    22.843     6.452
    16   8 O        1.698    -0.332    19.555     5.970
    17   8 O        1.701    -0.291    18.842     5.861
    18   6 C        3.675     0.074    19.563     6.338
    19   8 O        1.654    -0.493    22.742     6.438
    20   6 C        3.645     0.249    17.049     5.934
    21   8 O        1.696    -0.362    20.106     6.054
    22   6 C        3.750     0.110    18.839     6.190
    23   6 C        3.723     0.097    19.083     6.238
    24   6 C        3.722     0.088    19.221     6.261
    25   6 C        3.760     0.088    19.165     6.241
    26   8 O        1.654    -0.490    22.682     6.429
    27   8 O        1.699    -0.321    19.372     5.942
    28   8 O        1.653    -0.495    22.794     6.445
    29   6 C        3.729     0.073    19.460     6.297
    30   8 O        1.703    -0.272    18.513     5.809
    31   6 C        2.750     0.354    20.992     7.502
    32   8 O        0.857    -0.471    23.146     6.450
    33   6 C        2.729     0.356    20.959     7.495
    34   6 C        2.898    -0.086    30.152     9.003
    35   8 O        0.858    -0.497    23.717     6.529
    36   6 C        2.901    -0.002    28.067     8.687
    37   6 C        2.899    -0.043    29.058     8.838
    38   6 C        2.893    -0.008    28.209     8.708
    39   6 C        3.805    -0.074    21.904     6.663
    40   6 C        3.727     0.124    18.661     6.167
    41   6 C        2.895    -0.071    29.779     8.947
    42   8 O        1.652    -0.518    23.280     6.513
    43   6 C        2.898    -0.036    28.900     8.814
    44   6 C        2.899    -0.057    29.422     8.894
    45   6 C        2.894    -0.043    29.076     8.841
    46   6 C        3.805    -0.066    21.755     6.640
    47   6 C        3.801    -0.054    21.535     6.607
    48   6 C        3.800    -0.063    21.705     6.633
    49   6 C        3.799    -0.052    21.514     6.604
    50   6 C        3.751    -0.098    22.439     6.756
    51   8 O        1.657    -0.438    21.603     6.274
    52   8 O        1.657    -0.452    21.883     6.315
    53   6 C        3.662     0.233    17.223     5.954
    54   6 C        3.721     0.088    19.220     6.261
    55   6 C        3.722     0.099    19.057     6.234
    56   6 C        3.721     0.083    19.307     6.275
    57   6 C        3.746     0.096    19.062     6.228
    58   8 O        1.697    -0.371    20.274     6.079
    59   6 C        3.675     0.073    19.584     6.341
    60   8 O        1.654    -0.459    22.037     6.337
    61   8 O        1.653    -0.481    22.484     6.401
    62   8 O        1.654    -0.494    22.766     6.441
    63   8 O        1.652    -0.475    22.368     6.384
    64   6 C        2.975    -0.022    28.555     8.765
    65   6 C        2.925    -0.018    28.468     8.750
    66   6 C        2.926    -0.028    28.695     8.785
    67   6 C        2.976     0.033    27.264     8.565
    68   6 C        2.925    -0.034    28.839     8.807
    69   6 C        2.925    -0.024    28.611     8.772
    70   6 C        2.975    -0.012    28.311     8.728
    71   6 C        2.923    -0.037    28.925     8.820
    72   6 C        2.920    -0.045    29.122     8.850
    73   6 C        2.920    -0.035    28.873     8.812
    74   6 C        2.919    -0.067    29.678     8.933
    75   6 C        2.866     0.134    25.073     8.208
    76   8 O        1.702    -0.300    18.991     5.884
    77   6 C        3.648     0.025    20.470     6.500
    78   1 H        0.926     0.064     2.158     2.297
    79   1 H        0.926     0.074     2.044     2.236
    80   1 H        0.924     0.056     2.241     2.341
    81   1 H        0.923     0.050     2.318     2.381
    82   1 H        0.924     0.048     2.341     2.393
    83   1 H        0.923     0.088     1.899     2.155
    84   1 H        0.924     0.061     2.189     2.314
    85   1 H        0.924     0.033     2.542     2.493
    86   1 H        0.924     0.040     2.450     2.448
    87   1 H        0.802     0.332     0.632     1.249
    88   1 H        0.803     0.336     0.623     1.240
    89   1 H        0.924     0.052     2.294     2.369
    90   1 H        0.924     0.068     2.108     2.270
    91   1 H        0.804     0.363     0.559     1.175
    92   1 H        0.923     0.006     2.949     2.685
    93   1 H        0.923     0.042     2.425     2.435
    94   1 H        0.923     0.055     2.258     2.350
    95   1 H        0.923     0.058     2.223     2.332
    96   1 H        0.924     0.090     1.880     2.144
    97   1 H        0.804     0.373     0.538     1.152
    98   1 H        0.803     0.377     0.528     1.142
    99   1 H        0.924     0.089     1.885     2.147
   100   1 H        0.924     0.077     2.012     2.218
   101   1 H        0.926     0.092     1.861     2.133
   102   1 H        0.926     0.075     2.033     2.229
   103   1 H        0.926     0.073     2.058     2.243
   104   1 H        0.926     0.073     2.050     2.239
   105   1 H        0.924     0.071     2.075     2.253
   106   1 H        0.924     0.077     2.007     2.216
   107   1 H        0.923     0.029     2.604     2.524
   108   1 H        0.926     0.062     2.175     2.306
   109   1 H        0.804     0.357     0.573     1.189
   110   1 H        0.926     0.045     2.385     2.415
   111   1 H        0.926     0.052     2.298     2.371
   112   1 H        0.926     0.039     2.460     2.453
   113   1 H        0.924     0.038     2.471     2.458
   114   1 H        0.924     0.047     2.353     2.399
   115   1 H        0.924     0.036     2.505     2.475
   116   1 H        0.924     0.020     2.729     2.583
   117   1 H        0.924     0.036     2.510     2.477
   118   1 H        0.924     0.034     2.531     2.488
   119   1 H        0.923     0.023     2.691     2.565
   120   1 H        0.924     0.032     2.565     2.505
   121   1 H        0.924     0.023     2.684     2.562
   122   1 H        0.924     0.038     2.476     2.461
   123   1 H        0.924     0.031     2.571     2.508
   124   1 H        0.803     0.352     0.583     1.200
   125   1 H        0.804     0.381     0.522     1.134
   126   1 H        0.923     0.015     2.811     2.622
   127   1 H        0.924     0.054     2.269     2.356
   128   1 H        0.923     0.033     2.544     2.494
   129   1 H        0.923     0.075     2.030     2.228
   130   1 H        0.924     0.006     2.964     2.692
   131   1 H        0.924     0.066     2.132     2.284
   132   1 H        0.924     0.081     1.971     2.196
   133   1 H        0.804     0.346     0.597     1.213
   134   1 H        0.804     0.371     0.541     1.155
   135   1 H        0.804     0.372     0.539     1.153
   136   1 H        0.801     0.308     0.697     1.312
   137   1 H        0.926     0.058     2.222     2.331
   138   1 H        0.926     0.067     2.124     2.279
   139   1 H        0.926     0.065     2.146     2.291
   140   1 H        0.926     0.060     2.201     2.320
   141   1 H        0.926     0.053     2.287     2.365
   142   1 H        0.926     0.048     2.344     2.394
   143   1 H        0.926     0.051     2.303     2.373
   144   1 H        0.926     0.054     2.271     2.357
   145   1 H        0.924     0.053     2.281     2.362
   146   1 H        0.924     0.054     2.275     2.358
   147   1 H        0.924     0.072     2.065     2.247

 Mol. C6AA /au·bohr⁶  :     216262.915148
 Mol. C8AA /au·bohr⁸  :    4961569.146544
 Mol. α(0) /au        :        702.469036


Wiberg/Mayer (AO) data.
largest (>0.10) Wiberg bond orders for each atom

 ---------------------------------------------------------------------------
     #   Z sym  total        # sym  WBO       # sym  WBO       # sym  WBO
 ---------------------------------------------------------------------------
     1   6 C    3.945 --     6 C    1.383     2 C    1.340    51 O    1.078
     2   6 C    3.972 --     3 C    1.388     1 C    1.340     7 C    0.990
     3   6 C    3.987 --     4 C    1.431     2 C    1.388    13 C    1.003
     4   6 C    3.983 --     3 C    1.431     5 C    1.360    78 H    0.964
     5   6 C    3.945 --     6 C    1.383     4 C    1.360    52 O    1.076
     6   6 C    3.976 --     1 C    1.383     5 C    1.383    79 H    0.961
     7   6 C    3.934 --     2 C    0.990     8 C    0.949    12 O    0.949
                            80 H    0.946
     8   6 C    3.952 --    15 O    0.991     9 C    0.966    81 H    0.959
                             7 C    0.949
     9   6 C    3.928 --    10 C    0.969     8 C    0.966    82 H    0.949
                            17 O    0.936
    10   6 C    3.934 --     9 C    0.969    16 O    0.960    11 C    0.959
                            83 H    0.953
    11   6 C    3.939 --    18 C    0.982    12 O    0.960    10 C    0.959
                            84 H    0.944
    12   8 O    2.075 --    11 C    0.960     7 C    0.949
    13   6 C    3.954 --     3 C    1.003    14 O    0.984    85 H    0.970
                            86 H    0.953
    14   8 O    1.921 --    13 C    0.984    87 H    0.846
    15   8 O    1.925 --     8 C    0.991    88 H    0.834
    16   8 O    2.086 --    20 C    0.979    10 C    0.960
    17   8 O    2.275 --    33 C    1.092     9 C    0.936    35 O    0.141
    18   6 C    3.957 --    19 O    1.010    11 C    0.982    90 H    0.966
                            89 H    0.965
    19   8 O    1.921 --    18 C    1.010    91 H    0.852
    20   6 C    3.922 --    16 O    0.979    21 O    0.957    25 C    0.954
                            92 H    0.939
    21   8 O    2.058 --    20 C    0.957    22 C    0.948
    22   6 C    3.936 --    29 C    0.984    23 C    0.970    93 H    0.952
                            21 O    0.948
    23   6 C    3.966 --    28 O    1.006    22 C    0.970    24 C    0.967
                            94 H    0.956
    24   6 C    3.960 --    26 O    1.001    23 C    0.967    25 C    0.962
                            95 H    0.949
    25   6 C    3.937 --    27 O    0.966    24 C    0.962    20 C    0.954
                            96 H    0.953
    26   8 O    1.925 --    24 C    1.001    97 H    0.843
    27   8 O    2.089 --    53 C    0.982    25 C    0.966
    28   8 O    1.914 --    23 C    1.006    98 H    0.835
    29   6 C    3.924 --    22 C    0.984    99 H    0.960    30 O    0.959
                           100 H    0.952
    30   8 O    2.284 --    31 C    1.098    29 C    0.959    32 O    0.152
    31   6 C    3.891 --    32 O    1.664    30 O    1.098    64 C    1.034
    32   8 O    2.001 --    31 C    1.664    30 O    0.152
    33   6 C    3.894 --    35 O    1.591    17 O    1.092    34 C    1.090
    34   6 C    3.965 --    36 C    1.695    33 C    1.090   101 H    0.955
                            38 C    0.109
    35   8 O    1.953 --    33 C    1.591    17 O    0.141
    36   6 C    3.974 --    34 C    1.695    37 C    1.169   102 H    0.956
    37   6 C    3.985 --    38 C    1.764    36 C    1.169   103 H    0.956
    38   6 C    3.955 --    37 C    1.764    39 C    1.044   104 H    0.961
                            34 C    0.109
    39   6 C    3.987 --    38 C    1.044   105 H    0.965   106 H    0.959
                            40 C    0.945
    40   6 C    3.942 --    41 C    1.003    42 O    0.972   107 H    0.964
                            39 C    0.945
    41   6 C    3.975 --    43 C    1.835    40 C    1.003   108 H    0.955
                            45 C    0.130
    42   8 O    1.900 --    40 C    0.972   109 H    0.857
    43   6 C    3.990 --    41 C    1.835    44 C    1.122   110 H    0.962
    44   6 C    3.988 --    45 C    1.830    43 C    1.122   111 H    0.955
    45   6 C    3.985 --    44 C    1.830    46 C    1.031   112 H    0.965
                            41 C    0.130
    46   6 C    3.995 --    45 C    1.031    47 C    0.988   113 H    0.972
                           114 H    0.961
    47   6 C    3.990 --    48 C    1.007    46 C    0.988   115 H    0.977
                           116 H    0.971
    48   6 C    3.995 --    47 C    1.007    49 C    1.007   117 H    0.977
                           118 H    0.975
    49   6 C    3.996 --    50 C    1.021    48 C    1.007   120 H    0.978
                           119 H    0.977
    50   6 C    3.996 --    49 C    1.021   121 H    0.987   122 H    0.986
                           123 H    0.985
    51   8 O    2.083 --     1 C    1.078   124 H    0.828
    52   8 O    2.070 --     5 C    1.076   125 H    0.837
    53   6 C    3.918 --    27 O    0.982    54 C    0.955    58 O    0.949
                           126 H    0.942
    54   6 C    3.960 --    62 O    1.001    55 C    0.969    53 C    0.955
                           127 H    0.955
    55   6 C    3.966 --    61 O    1.005    54 C    0.969    56 C    0.963
                           128 H    0.956
    56   6 C    3.961 --    60 O    1.011    55 C    0.963    57 C    0.958
                           129 H    0.946
    57   6 C    3.934 --    59 C    0.980    56 C    0.958    58 O    0.946
                           130 H    0.941
    58   8 O    2.057 --    53 C    0.949    57 C    0.946
    59   6 C    3.947 --    63 O    1.003    57 C    0.980   132 H    0.965
                           131 H    0.955
    60   8 O    1.963 --    56 C    1.011   133 H    0.860
    61   8 O    1.925 --    55 C    1.005   134 H    0.844
    62   8 O    1.919 --    54 C    1.001   135 H    0.844
    63   8 O    1.942 --    59 C    1.003   136 H    0.859
    64   6 C    3.976 --    65 C    1.365    69 C    1.364    31 C    1.034
    65   6 C    3.986 --    66 C    1.474    64 C    1.365   137 H    0.965
    66   6 C    3.988 --    65 C    1.474    67 C    1.373   138 H    0.964
    67   6 C    3.985 --    66 C    1.373    68 C    1.372    70 C    1.053
    68   6 C    3.989 --    69 C    1.477    67 C    1.372   139 H    0.965
    69   6 C    3.988 --    68 C    1.477    64 C    1.364   140 H    0.965
    70   6 C    3.984 --    71 C    1.400    75 C    1.313    67 C    1.053
                            73 C    0.101
    71   6 C    3.986 --    72 C    1.447    70 C    1.400   141 H    0.966
    72   6 C    3.990 --    71 C    1.447    73 C    1.424   142 H    0.969
    73   6 C    3.984 --    74 C    1.448    72 C    1.424   143 H    0.969
                            70 C    0.101
    74   6 C    3.987 --    73 C    1.448    75 C    1.379   144 H    0.962
    75   6 C    3.928 --    74 C    1.379    70 C    1.313    76 O    1.045
    76   8 O    2.205 --    75 C    1.045    77 C    0.977
    77   6 C    3.935 --   147 H    0.977    76 O    0.977   146 H    0.976
                           145 H    0.976
    78   1 H    0.995 --     4 C    0.964
    79   1 H    0.994 --     6 C    0.961
    80   1 H    0.996 --     7 C    0.946
    81   1 H    0.997 --     8 C    0.959
    82   1 H    0.997 --     9 C    0.949
    83   1 H    0.992 --    10 C    0.953
    84   1 H    0.996 --    11 C    0.944
    85   1 H    0.999 --    13 C    0.970
    86   1 H    0.998 --    13 C    0.953
    87   1 H    0.889 --    14 O    0.846
    88   1 H    0.887 --    15 O    0.834
    89   1 H    0.997 --    18 C    0.965
    90   1 H    0.995 --    18 C    0.966
    91   1 H    0.868 --    19 O    0.852
    92   1 H    1.000 --    20 C    0.939
    93   1 H    0.998 --    22 C    0.952
    94   1 H    0.997 --    23 C    0.956
    95   1 H    0.997 --    24 C    0.949
    96   1 H    0.991 --    25 C    0.953
    97   1 H    0.861 --    26 O    0.843
    98   1 H    0.857 --    28 O    0.835
    99   1 H    0.991 --    29 C    0.960
   100   1 H    0.994 --    29 C    0.952
   101   1 H    0.991 --    34 C    0.955
   102   1 H    0.994 --    36 C    0.956
   103   1 H    0.995 --    37 C    0.956
   104   1 H    0.995 --    38 C    0.961
   105   1 H    0.994 --    39 C    0.965
   106   1 H    0.989 --    39 C    0.959
   107   1 H    0.998 --    40 C    0.964
   108   1 H    0.996 --    41 C    0.955
   109   1 H    0.871 --    42 O    0.857
   110   1 H    0.998 --    43 C    0.962
   111   1 H    0.997 --    44 C    0.955
   112   1 H    0.998 --    45 C    0.965
   113   1 H    0.999 --    46 C    0.972
   114   1 H    0.993 --    46 C    0.961
   115   1 H    0.999 --    47 C    0.977
   116   1 H    1.000 --    47 C    0.971
   117   1 H    0.999 --    48 C    0.977
   118   1 H    0.999 --    48 C    0.975
   119   1 H    0.999 --    49 C    0.977
   120   1 H    0.999 --    49 C    0.978
   121   1 H    0.999 --    50 C    0.987
   122   1 H    0.999 --    50 C    0.986
   123   1 H    0.999 --    50 C    0.985
   124   1 H    0.876 --    51 O    0.828
   125   1 H    0.855 --    52 O    0.837
   126   1 H    1.000 --    53 C    0.942
   127   1 H    0.997 --    54 C    0.955
   128   1 H    0.999 --    55 C    0.956
   129   1 H    0.994 --    56 C    0.946
   130   1 H    1.000 --    57 C    0.941
   131   1 H    0.995 --    59 C    0.955
   132   1 H    0.993 --    59 C    0.965
   133   1 H    0.880 --    60 O    0.860
   134   1 H    0.862 --    61 O    0.844
   135   1 H    0.861 --    62 O    0.844
   136   1 H    0.905 --    63 O    0.859
   137   1 H    0.996 --    65 C    0.965
   138   1 H    0.995 --    66 C    0.964
   139   1 H    0.995 --    68 C    0.965
   140   1 H    0.996 --    69 C    0.965
   141   1 H    0.997 --    71 C    0.966
   142   1 H    0.997 --    72 C    0.969
   143   1 H    0.997 --    73 C    0.969
   144   1 H    0.996 --    74 C    0.962
   145   1 H    0.997 --    77 C    0.976
   146   1 H    0.997 --    77 C    0.976
   147   1 H    0.994 --    77 C    0.977
 ---------------------------------------------------------------------------

Topologies differ in total number of bonds
Writing topology from bond orders to xtbtopo.mol

molecular dipole:
                 x           y           z       tot (Debye)
 q only:        3.276      -2.978       1.280
   full:        3.275      -3.383       1.319      12.427
molecular quadrupole (traceless):
                xx          xy          yy          xz          yz          zz
 q only:        0.273      36.439       1.789     -44.480      -2.298      -2.062
  q+dip:        2.637      53.401       2.810     -53.819       7.736      -5.447
   full:       -0.608      50.077       4.696     -49.930       5.550      -4.088


           -------------------------------------------------
          | TOTAL ENERGY             -242.956657513665 Eh   |
          | GRADIENT NORM               0.124328262309 Eh/α |
          | HOMO-LUMO GAP               1.434978579394 eV   |
           -------------------------------------------------

------------------------------------------------------------------------
 * finished run on 2026/06/19 at 18:53:07.719     
------------------------------------------------------------------------
 total:
 * wall-time:     0 d,  0 h,  0 min,  0.326 sec
 *  cpu-time:     0 d,  0 h,  0 min,  4.906 sec
 * ratio c/w:    15.052 speedup
 SCF:
 * wall-time:     0 d,  0 h,  0 min,  0.275 sec
 *  cpu-time:     0 d,  0 h,  0 min,  4.296 sec
 * ratio c/w:    15.598 speedup

normal termination of xtb
