      -----------------------------------------------------------      
     |                   =====================                   |     
     |                           x T B                           |     
     |                   =====================                   |     
     |                         S. Grimme                         |     
     |          Mulliken Center for Theoretical Chemistry        |     
     |                    University of Bonn                     |     
      -----------------------------------------------------------      

   * xtb version 6.7.1 (edcfbbe) compiled by 'albert@albert-system' on 2024-07-22

   xtb is free software: you can redistribute it and/or modify it under
   the terms of the GNU Lesser General Public License as published by
   the Free Software Foundation, either version 3 of the License, or
   (at your option) any later version.
   
   xtb is distributed in the hope that it will be useful,
   but WITHOUT ANY WARRANTY; without even the implied warranty of
   MERCHANTABILITY or FITNESS FOR A PARTICULAR PURPOSE.  See the
   GNU Lesser General Public License for more details.
   
   Cite this work as:
   * C. Bannwarth, E. Caldeweyher, S. Ehlert, A. Hansen, P. Pracht,
     J. Seibert, S. Spicher, S. Grimme, WIREs Comput. Mol. Sci., 2020, 11,
     e01493. DOI: 10.1002/wcms.1493
   
   for GFN2-xTB:
   * C. Bannwarth, S. Ehlert and S. Grimme., J. Chem. Theory Comput., 2019,
     15, 1652-1671. DOI: 10.1021/acs.jctc.8b01176
   for GFN1-xTB:
   * S. Grimme, C. Bannwarth, P. Shushkov, J. Chem. Theory Comput., 2017,
     13, 1989-2009. DOI: 10.1021/acs.jctc.7b00118
   for GFN0-xTB:
   * P. Pracht, E. Caldeweyher, S. Ehlert, S. Grimme, ChemRxiv, 2019, preprint.
     DOI: 10.26434/chemrxiv.8326202.v1
   for GFN-FF:
   * S. Spicher and S. Grimme, Angew. Chem. Int. Ed., 2020, 59, 15665-15673.
     DOI: 10.1002/anie.202004239
   
   for ALPB and GBSA implicit solvation:
   * S. Ehlert, M. Stahn, S. Spicher, S. Grimme, J. Chem. Theory Comput.,
     2021, 17, 4250-4261. DOI: 10.1021/acs.jctc.1c00471
   
   for ddCOSMO and CPCM-X implicit solvation:
   * M. Stahn, S. Ehlert, S. Grimme, J. Phys. Chem. A,
     2023, XX, XXXX-XXXX. DOI: 10.1021/acs.jpca.3c04382
   
   for DFT-D4:
   * E. Caldeweyher, C. Bannwarth and S. Grimme, J. Chem. Phys., 2017,
     147, 034112. DOI: 10.1063/1.4993215
   * E. Caldeweyher, S. Ehlert, A. Hansen, H. Neugebauer, S. Spicher,
     C. Bannwarth and S. Grimme, J. Chem. Phys., 2019, 150, 154122.
     DOI: 10.1063/1.5090222
   * E. Caldeweyher, J.-M. Mewes, S. Ehlert and S. Grimme, Phys. Chem. Chem. Phys.
     2020, 22, 8499-8512. DOI: 10.1039/D0CP00502A
   
   for sTDA-xTB:
   * S. Grimme and C. Bannwarth, J. Chem. Phys., 2016, 145, 054103.
     DOI: 10.1063/1.4959605
   
   in the mass-spec context:
   * V. Asgeirsson, C. Bauer and S. Grimme, Chem. Sci., 2017, 8, 4879.
     DOI: 10.1039/c7sc00601b
   * J. Koopman and S. Grimme, ACS Omega 2019, 4, 12, 15120-15133.
     DOI: 10.1021/acsomega.9b02011
   
   for metadynamics refer to:
   * S. Grimme, J. Chem. Theory Comput., 2019, 155, 2847-2862
     DOI: 10.1021/acs.jctc.9b00143
   
   for SPH calculations refer to:
   * S. Spicher and S. Grimme, J. Chem. Theory Comput., 2021, 17, 1701-1714
     DOI: 10.1021/acs.jctc.0c01306
   
   for ONIOM refer to:
   * C. Plett, A. Katbashev, S. Ehlert, S. Grimme, M. Bursch,
     Phys. Chem. Chem. Phys., 2023, 25, 17860-17868. DOI: 10.1039/D3CP02178E
   
   for DIPRO refer to:
   * J. Kohn, N. Gildemeister, S. Grimme, D. Fazzi, A. Hansen,
     J. Chem. Phys., 2023, just accepted.
   
   for PTB refer to:
   * S. Grimme, M. Mueller, A. Hansen, J. Chem. Phys., 2023, 158, 124111.
     DOI: 10.1063/5.0137838
   
   with help from (in alphabetical order)
   P. Atkinson, C. Bannwarth, F. Bohle, G. Brandenburg, E. Caldeweyher
   M. Checinski, S. Dohm, S. Ehlert, S. Ehrlich, I. Gerasimov, C. Hölzer
   A. Katbashev, J. Kohn, J. Koopman, C. Lavigne, S. Lehtola, F. März, M. Müller,
   F. Musil, H. Neugebauer, J. Pisarek, C. Plett, P. Pracht, F. Pultar,
   J. Seibert, P. Shushkov, S. Spicher, M. Stahn, M. Steiner, T. Strunk,
   J. Stückrath, T. Rose, and J. Unsleber
   
 * started run on 2026/06/19 at 18:53:08.408     
   ID    Z sym.   atoms
    1    6 C      1-11, 13, 18, 20, 22-25, 29, 31, 33, 34, 36-41, 43-50,
                  53-57, 59, 64-75, 77
    2    8 O      12, 14-17, 19, 21, 26-28, 30, 32, 35, 42, 51, 52, 58,
                  60-63, 76
    3    1 H      78-147

           -------------------------------------------------
          |                Calculation Setup                |
           -------------------------------------------------

          program call               : xtb PAPU-0090/conf04.xyz --gfn 2 --alpb octanol --chrg 0 --uhf 0 --namespace PAPU-0090/conf04_octanol
          hostname                   : cpu10
          calculation namespace      : PAPU-0090/conf04_octanol
          coordinate file            : PAPU-0090/conf04.xyz
          omp threads                :                    16


           -------------------------------------------------
          |                 G F N 2 - x T B                 |
           -------------------------------------------------

        Reference                      10.1021/acs.jctc.8b01176
      * Hamiltonian:
        H0-scaling (s, p, d)           1.850000    2.230000    2.230000
        zeta-weighting                 0.500000
      * Dispersion:
        s8                             2.700000
        a1                             0.520000
        a2                             5.000000
        s9                             5.000000
      * Repulsion:
        kExp                           1.500000    1.000000
        rExp                           1.000000
      * Coulomb:
        alpha                          2.000000
        third order                    shell-resolved
        anisotropic                    true
        a3                             3.000000
        a5                             4.000000
        cn-shift                       1.200000
        cn-exp                         4.000000
        max-rad                        5.000000

      * Solvation model:               ALPB
        Solvent                        octanol
        Parameter file                 internal GFN2-xTB/ALPB
        Dielectric constant                9.8629E+00
        Reference state                gsolv [1 M gas/solution]
        Free energy shift                  2.3397E-03 Eh       1.4682E+00 kcal/mol
        Temperature                        2.9815E+02 K
        Density                            8.3000E-01 kg/L
        Solvent mass                       1.3023E+02 g/mol
        Interaction kernel             P16
        Born radius scaling (c1)           1.5898E+00
        Born radii integrator          GBOBC
        Born offset                        0.0000E+00 a0       0.0000E+00 AA
        H-bond correction              true
        Ion screening                  false
        Surface tension                    1.0000E-05 Eh       1.5569E+01 dyn/cm
        Grid points                               230 per atom

          ...................................................
          :                      SETUP                      :
          :.................................................:
          :  # basis functions                 378          :
          :  # atomic orbitals                 378          :
          :  # shells                          224          :
          :  # electrons                       422          :
          :  max. iterations                   250          :
          :  Hamiltonian                  GFN2-xTB          :
          :  restarted?                      false          :
          :  GBSA solvation                   true          :
          :  PC potential                    false          :
          :  electronic temp.          300.0000000     K    :
          :  accuracy                    1.0000000          :
          :  -> integral cutoff          0.2500000E+02      :
          :  -> integral neglect         0.1000000E-07      :
          :  -> SCF convergence          0.1000000E-05 Eh   :
          :  -> wf. convergence          0.1000000E-03 e    :
          :  Broyden damping             0.4000000          :
          :  net charge                          0          :
          :  unpaired electrons                  0          :
          ...................................................

 iter      E             dE          RMSdq      gap      omega  full diag
   1   -245.3943673 -0.245394E+03  0.459E+00    2.36       0.0  T
   2   -245.6207957 -0.226428E+00  0.254E+00    1.76       1.0  T
   3   -245.5954837  0.253120E-01  0.107E+00    1.82       1.0  T
   4   -245.6436713 -0.481876E-01  0.318E-01    1.67       1.0  T
   5   -245.6499414 -0.627011E-02  0.131E-01    1.64       1.0  T
   6   -245.6508751 -0.933707E-03  0.642E-02    1.65       1.0  T
   7   -245.6510249 -0.149785E-03  0.278E-02    1.65       1.0  T
   8   -245.6510532 -0.282531E-04  0.117E-02    1.65       1.0  T
   9   -245.6510579 -0.469959E-05  0.612E-03    1.65       1.3  T
  10   -245.6510602 -0.234113E-05  0.245E-03    1.65       3.4  T
  11   -245.6510604 -0.187527E-06  0.119E-03    1.65       6.9  T
  12   -245.6510604 -0.272120E-07  0.515E-04    1.65      16.0  T
  13   -245.6510604 -0.121581E-07  0.230E-04    1.65      35.9  T

   *** convergence criteria satisfied after 13 iterations ***

         #    Occupation            Energy/Eh            Energy/eV
      -------------------------------------------------------------
         1        2.0000           -0.7661168             -20.8471
       ...           ...                  ...                  ...
       205        2.0000           -0.4056692             -11.0388
       206        2.0000           -0.4053115             -11.0291
       207        2.0000           -0.4049271             -11.0186
       208        2.0000           -0.4023028             -10.9472
       209        2.0000           -0.3889747             -10.5845
       210        2.0000           -0.3860826             -10.5058
       211        2.0000           -0.3732856             -10.1576 (HOMO)
       212                         -0.3126434              -8.5075 (LUMO)
       213                         -0.2933801              -7.9833
       214                         -0.2447958              -6.6612
       215                         -0.2440374              -6.6406
       216                         -0.2356387              -6.4121
       ...                                ...                  ...
       378                          0.6825616              18.5734
      -------------------------------------------------------------
                  HL-Gap            0.0606422 Eh            1.6502 eV
             Fermi-level           -0.3429645 Eh           -9.3325 eV

 SCC (total)                   0 d,  0 h,  0 min,  0.278 sec
 SCC setup                      ...        0 min,  0.004 sec (  1.370%)
 Dispersion                     ...        0 min,  0.005 sec (  1.793%)
 classical contributions        ...        0 min,  0.000 sec (  0.080%)
 integral evaluation            ...        0 min,  0.013 sec (  4.764%)
 iterations                     ...        0 min,  0.213 sec ( 76.558%)
 molecular gradient             ...        0 min,  0.041 sec ( 14.577%)
 printout                       ...        0 min,  0.002 sec (  0.845%)

         :::::::::::::::::::::::::::::::::::::::::::::::::::::
         ::                     SUMMARY                     ::
         :::::::::::::::::::::::::::::::::::::::::::::::::::::
         :: total energy            -242.989884537404 Eh    ::
         :: total w/o Gsasa/hb      -242.905002754826 Eh    ::
         :: gradient norm              0.125374065762 Eh/a0 ::
         :: HOMO-LUMO gap              1.650157049079 eV    ::
         ::.................................................::
         :: SCC energy              -245.636508916929 Eh    ::
         :: -> isotropic ES            0.559460005257 Eh    ::
         :: -> anisotropic ES         -0.033498627532 Eh    ::
         :: -> anisotropic XC          0.020876641542 Eh    ::
         :: -> dispersion             -0.199095857429 Eh    ::
         :: -> Gsolv                  -0.123241568278 Eh    ::
         ::    -> Gelec               -0.038359785699 Eh    ::
         ::    -> Gsasa               -0.033984839072 Eh    ::
         ::    -> Ghb                 -0.053236612882 Eh    ::
         ::    -> Gshift               0.002339669376 Eh    ::
         :: repulsion energy           2.646624379524 Eh    ::
         :: add. restraining           0.000000000000 Eh    ::
         :: total charge               0.000000000000 e     ::
         :::::::::::::::::::::::::::::::::::::::::::::::::::::

           -------------------------------------------------
          |                Property Printout                |
           -------------------------------------------------

    * Orbital Energies and Occupations

         #    Occupation            Energy/Eh            Energy/eV
      -------------------------------------------------------------
         1        2.0000           -0.7661168             -20.8471
       ...           ...                  ...                  ...
       199        2.0000           -0.4185642             -11.3897
       200        2.0000           -0.4161139             -11.3230
       201        2.0000           -0.4156888             -11.3115
       202        2.0000           -0.4122825             -11.2188
       203        2.0000           -0.4113583             -11.1936
       204        2.0000           -0.4106675             -11.1748
       205        2.0000           -0.4056692             -11.0388
       206        2.0000           -0.4053115             -11.0291
       207        2.0000           -0.4049271             -11.0186
       208        2.0000           -0.4023028             -10.9472
       209        2.0000           -0.3889747             -10.5845
       210        2.0000           -0.3860826             -10.5058
       211        2.0000           -0.3732856             -10.1576 (HOMO)
       212                         -0.3126434              -8.5075 (LUMO)
       213                         -0.2933801              -7.9833
       214                         -0.2447958              -6.6612
       215                         -0.2440374              -6.6406
       216                         -0.2356387              -6.4121
       217                         -0.2344269              -6.3791
       218                         -0.2301463              -6.2626
       219                         -0.2287462              -6.2245
       220                         -0.2281031              -6.2070
       221                         -0.1916981              -5.2164
       222                         -0.1619252              -4.4062
       ...                                ...                  ...
       378                          0.6825616              18.5734
      -------------------------------------------------------------
                  HL-Gap            0.0606422 Eh            1.6502 eV
             Fermi-level           -0.3429645 Eh           -9.3325 eV

     #   Z          covCN         q      C6AA      α(0)
     1   6 C        2.840     0.146    24.820     8.164
     2   6 C        2.975    -0.026    28.658     8.781
     3   6 C        2.964    -0.005    28.154     8.703
     4   6 C        2.927    -0.098    30.461     9.051
     5   6 C        2.836     0.150    24.741     8.151
     6   6 C        2.922    -0.104    30.619     9.074
     7   6 C        3.750     0.100    18.995     6.216
     8   6 C        3.723     0.093    19.147     6.249
     9   6 C        3.776     0.094    19.057     6.220
    10   6 C        3.746     0.096    19.057     6.227
    11   6 C        3.742     0.084    19.249     6.259
    12   8 O        1.696    -0.343    19.770     6.003
    13   6 C        3.681     0.070    19.614     6.343
    14   8 O        1.653    -0.500    22.893     6.459
    15   8 O        1.652    -0.474    22.331     6.379
    16   8 O        1.698    -0.340    19.702     5.993
    17   8 O        1.702    -0.287    18.770     5.849
    18   6 C        3.676     0.069    19.649     6.351
    19   8 O        1.654    -0.480    22.456     6.397
    20   6 C        3.650     0.250    17.022     5.927
    21   8 O        1.695    -0.359    20.064     6.048
    22   6 C        3.752     0.106    18.892     6.198
    23   6 C        3.721     0.090    19.199     6.258
    24   6 C        3.722     0.079    19.366     6.285
    25   6 C        3.752     0.084    19.245     6.256
    26   8 O        1.654    -0.481    22.482     6.401
    27   8 O        1.699    -0.323    19.402     5.947
    28   8 O        1.653    -0.483    22.540     6.409
    29   6 C        3.721     0.060    19.672     6.334
    30   8 O        1.702    -0.273    18.532     5.812
    31   6 C        2.745     0.359    20.912     7.488
    32   8 O        0.857    -0.464    23.005     6.431
    33   6 C        2.749     0.362    20.858     7.478
    34   6 C        2.896    -0.093    30.323     9.029
    35   8 O        0.858    -0.493    23.632     6.518
    36   6 C        2.904    -0.001    28.063     8.686
    37   6 C        2.897    -0.047    29.157     8.853
    38   6 C        2.896    -0.016    28.413     8.740
    39   6 C        3.806    -0.076    21.956     6.670
    40   6 C        3.728     0.124    18.648     6.165
    41   6 C        2.897    -0.073    29.810     8.952
    42   8 O        1.652    -0.501    22.910     6.461
    43   6 C        2.899    -0.036    28.887     8.812
    44   6 C        2.900    -0.053    29.311     8.877
    45   6 C        2.895    -0.035    28.867     8.809
    46   6 C        3.805    -0.061    21.662     6.626
    47   6 C        3.801    -0.062    21.699     6.632
    48   6 C        3.800    -0.058    21.627     6.621
    49   6 C        3.798    -0.046    21.399     6.587
    50   6 C        3.750    -0.110    22.671     6.790
    51   8 O        1.656    -0.441    21.659     6.282
    52   8 O        1.657    -0.435    21.549     6.267
    53   6 C        3.647     0.235    17.232     5.965
    54   6 C        3.722     0.084    19.284     6.271
    55   6 C        3.723     0.096    19.099     6.241
    56   6 C        3.722     0.087    19.245     6.265
    57   6 C        3.739     0.102    18.970     6.215
    58   8 O        1.696    -0.355    19.983     6.035
    59   6 C        3.675     0.065    19.705     6.361
    60   8 O        1.653    -0.478    22.435     6.394
    61   8 O        1.654    -0.477    22.400     6.389
    62   8 O        1.654    -0.483    22.531     6.408
    63   8 O        1.652    -0.466    22.176     6.357
    64   6 C        2.974    -0.025    28.616     8.775
    65   6 C        2.925    -0.027    28.664     8.780
    66   6 C        2.927    -0.038    28.951     8.824
    67   6 C        2.972     0.028    27.379     8.583
    68   6 C        2.928    -0.041    29.008     8.833
    69   6 C        2.924    -0.023    28.586     8.768
    70   6 C        2.970    -0.012    28.300     8.726
    71   6 C        2.925    -0.039    28.965     8.826
    72   6 C        2.920    -0.044    29.084     8.844
    73   6 C        2.920    -0.032    28.809     8.802
    74   6 C        2.919    -0.064    29.596     8.921
    75   6 C        2.864     0.138    24.995     8.195
    76   8 O        1.701    -0.295    18.908     5.871
    77   6 C        3.647     0.028    20.423     6.493
    78   1 H        0.926     0.060     2.196     2.317
    79   1 H        0.926     0.074     2.044     2.236
    80   1 H        0.924     0.045     2.378     2.411
    81   1 H        0.923     0.074     2.039     2.233
    82   1 H        0.924     0.065     2.139     2.287
    83   1 H        0.923     0.079     1.991     2.207
    84   1 H        0.923     0.053     2.286     2.365
    85   1 H        0.924     0.038     2.482     2.464
    86   1 H        0.924     0.068     2.105     2.269
    87   1 H        0.804     0.347     0.596     1.213
    88   1 H        0.802     0.324     0.652     1.269
    89   1 H        0.924     0.064     2.155     2.296
    90   1 H        0.924     0.050     2.315     2.379
    91   1 H        0.803     0.351     0.587     1.203
    92   1 H        0.923     0.011     2.867     2.648
    93   1 H        0.923     0.045     2.379     2.412
    94   1 H        0.923     0.054     2.276     2.359
    95   1 H        0.923     0.067     2.121     2.278
    96   1 H        0.924     0.085     1.928     2.171
    97   1 H        0.804     0.360     0.565     1.181
    98   1 H        0.803     0.367     0.549     1.164
    99   1 H        0.924     0.096     1.826     2.113
   100   1 H        0.924     0.093     1.854     2.129
   101   1 H        0.926     0.083     1.944     2.180
   102   1 H        0.926     0.074     2.047     2.237
   103   1 H        0.926     0.074     2.041     2.234
   104   1 H        0.926     0.066     2.125     2.280
   105   1 H        0.924     0.070     2.087     2.259
   106   1 H        0.924     0.081     1.965     2.192
   107   1 H        0.923     0.020     2.731     2.584
   108   1 H        0.926     0.037     2.484     2.464
   109   1 H        0.804     0.341     0.610     1.227
   110   1 H        0.926     0.046     2.367     2.406
   111   1 H        0.926     0.045     2.381     2.413
   112   1 H        0.926     0.035     2.518     2.481
   113   1 H        0.924     0.046     2.369     2.407
   114   1 H        0.924     0.036     2.506     2.476
   115   1 H        0.924     0.047     2.362     2.403
   116   1 H        0.924     0.036     2.502     2.473
   117   1 H        0.924     0.022     2.707     2.573
   118   1 H        0.924     0.032     2.557     2.501
   119   1 H        0.924     0.020     2.731     2.584
   120   1 H        0.923     0.017     2.784     2.609
   121   1 H        0.924     0.034     2.528     2.487
   122   1 H        0.924     0.043     2.406     2.426
   123   1 H        0.924     0.036     2.506     2.476
   124   1 H        0.804     0.364     0.557     1.173
   125   1 H        0.804     0.360     0.566     1.182
   126   1 H        0.923     0.006     2.962     2.691
   127   1 H        0.923     0.061     2.184     2.311
   128   1 H        0.923     0.031     2.573     2.508
   129   1 H        0.923     0.050     2.324     2.384
   130   1 H        0.923     0.007     2.945     2.684
   131   1 H        0.924     0.055     2.258     2.350
   132   1 H        0.924     0.093     1.851     2.127
   133   1 H        0.803     0.368     0.548     1.163
   134   1 H        0.804     0.367     0.550     1.165
   135   1 H        0.804     0.358     0.570     1.186
   136   1 H        0.801     0.309     0.695     1.309
   137   1 H        0.926     0.063     2.163     2.300
   138   1 H        0.926     0.062     2.171     2.304
   139   1 H        0.926     0.087     1.909     2.161
   140   1 H        0.926     0.056     2.250     2.346
   141   1 H        0.926     0.056     2.251     2.346
   142   1 H        0.926     0.049     2.328     2.386
   143   1 H        0.926     0.052     2.292     2.367
   144   1 H        0.926     0.056     2.243     2.342
   145   1 H        0.924     0.051     2.312     2.378
   146   1 H        0.924     0.071     2.069     2.249
   147   1 H        0.924     0.052     2.294     2.369

 Mol. C6AA /au·bohr⁶  :     216201.644422
 Mol. C8AA /au·bohr⁸  :    4960994.313709
 Mol. α(0) /au        :        702.418289


Wiberg/Mayer (AO) data.
largest (>0.10) Wiberg bond orders for each atom

 ---------------------------------------------------------------------------
     #   Z sym  total        # sym  WBO       # sym  WBO       # sym  WBO
 ---------------------------------------------------------------------------
     1   6 C    3.941 --     6 C    1.391     2 C    1.335    51 O    1.072
     2   6 C    3.978 --     3 C    1.395     1 C    1.335     7 C    0.993
     3   6 C    3.986 --     4 C    1.421     2 C    1.395    13 C    1.000
     4   6 C    3.979 --     3 C    1.421     5 C    1.365    78 H    0.962
     5   6 C    3.944 --     6 C    1.377     4 C    1.365    52 O    1.075
     6   6 C    3.977 --     1 C    1.391     5 C    1.377    79 H    0.961
     7   6 C    3.940 --     2 C    0.993     8 C    0.951    80 H    0.949
                            12 O    0.948
     8   6 C    3.951 --    15 O    1.004     9 C    0.957    81 H    0.952
                             7 C    0.951
     9   6 C    3.918 --    10 C    0.967     8 C    0.957    17 O    0.937
                            82 H    0.936
    10   6 C    3.929 --     9 C    0.967    11 C    0.958    16 O    0.956
                            83 H    0.954
    11   6 C    3.947 --    18 C    0.983    12 O    0.973    10 C    0.958
                            84 H    0.947
    12   8 O    2.057 --    11 C    0.973     7 C    0.948
    13   6 C    3.950 --     3 C    1.000    14 O    0.988    85 H    0.968
                            86 H    0.946
    14   8 O    1.928 --    13 C    0.988    87 H    0.866
    15   8 O    1.954 --     8 C    1.004    88 H    0.841
    16   8 O    2.076 --    20 C    0.979    10 C    0.956
    17   8 O    2.282 --    33 C    1.106     9 C    0.937    35 O    0.147
    18   6 C    3.960 --    19 O    1.011    11 C    0.983    89 H    0.967
                            90 H    0.966
    19   8 O    1.929 --    18 C    1.011    91 H    0.857
    20   6 C    3.923 --    16 O    0.979    21 O    0.956    25 C    0.956
                            92 H    0.937
    21   8 O    2.065 --    20 C    0.956    22 C    0.948
    22   6 C    3.933 --    29 C    0.976    23 C    0.970    21 O    0.948
                            93 H    0.947
    23   6 C    3.966 --    28 O    1.007    22 C    0.970    24 C    0.966
                            94 H    0.956
    24   6 C    3.957 --    26 O    0.999    23 C    0.966    25 C    0.961
                            95 H    0.945
    25   6 C    3.937 --    27 O    0.966    24 C    0.961    20 C    0.956
                            96 H    0.953
    26   8 O    1.932 --    24 C    0.999    97 H    0.852
    27   8 O    2.089 --    53 C    0.982    25 C    0.966
    28   8 O    1.922 --    23 C    1.007    98 H    0.842
    29   6 C    3.920 --    22 C    0.976    99 H    0.963    30 O    0.959
                           100 H    0.953
    30   8 O    2.277 --    31 C    1.095    29 C    0.959    32 O    0.143
    31   6 C    3.887 --    32 O    1.660    30 O    1.095    64 C    1.028
    32   8 O    2.010 --    31 C    1.660    30 O    0.143
    33   6 C    3.897 --    35 O    1.614    17 O    1.106    34 C    1.072
    34   6 C    3.967 --    36 C    1.719    33 C    1.072   101 H    0.960
                            38 C    0.112
    35   8 O    1.987 --    33 C    1.614    17 O    0.147
    36   6 C    3.971 --    34 C    1.719    37 C    1.157   102 H    0.951
    37   6 C    3.984 --    38 C    1.783    36 C    1.157   103 H    0.957
    38   6 C    3.971 --    37 C    1.783    39 C    1.042   104 H    0.960
                            34 C    0.112
    39   6 C    3.988 --    38 C    1.042   105 H    0.969    40 C    0.955
                           106 H    0.947
    40   6 C    3.947 --    41 C    1.001    42 O    0.974   107 H    0.965
                            39 C    0.955
    41   6 C    3.985 --    43 C    1.835    40 C    1.001   108 H    0.960
                            45 C    0.131
    42   8 O    1.912 --    40 C    0.974   109 H    0.868
    43   6 C    3.990 --    41 C    1.835    44 C    1.125   110 H    0.962
    44   6 C    3.989 --    45 C    1.829    43 C    1.125   111 H    0.954
    45   6 C    3.986 --    44 C    1.829    46 C    1.029   112 H    0.967
                            41 C    0.131
    46   6 C    3.996 --    45 C    1.029    47 C    0.990   114 H    0.978
                           113 H    0.957
    47   6 C    3.994 --    48 C    1.009    46 C    0.990   116 H    0.973
                           115 H    0.970
    48   6 C    3.996 --    47 C    1.009    49 C    1.006   118 H    0.976
                           117 H    0.976
    49   6 C    3.996 --    50 C    1.021    48 C    1.006   119 H    0.977
                           120 H    0.976
    50   6 C    3.996 --    49 C    1.021   121 H    0.987   123 H    0.984
                           122 H    0.981
    51   8 O    2.086 --     1 C    1.072   124 H    0.847
    52   8 O    2.084 --     5 C    1.075   125 H    0.852
    53   6 C    3.923 --    27 O    0.982    54 C    0.955    58 O    0.954
                           126 H    0.945
    54   6 C    3.958 --    62 O    1.000    55 C    0.969   127 H    0.955
                            53 C    0.955
    55   6 C    3.966 --    61 O    1.004    54 C    0.969    56 C    0.967
                           128 H    0.960
    56   6 C    3.968 --    60 O    1.010    55 C    0.967    57 C    0.967
                           129 H    0.957
    57   6 C    3.938 --    59 C    0.982    56 C    0.967    58 O    0.950
                           130 H    0.948
    58   8 O    2.066 --    53 C    0.954    57 C    0.950
    59   6 C    3.951 --    63 O    1.005    57 C    0.982   132 H    0.963
                           131 H    0.960
    60   8 O    1.925 --    56 C    1.010   133 H    0.842
    61   8 O    1.933 --    55 C    1.004   134 H    0.848
    62   8 O    1.926 --    54 C    1.000   135 H    0.854
    63   8 O    1.942 --    59 C    1.005   136 H    0.851
    64   6 C    3.974 --    69 C    1.368    65 C    1.362    31 C    1.028
    65   6 C    3.986 --    66 C    1.477    64 C    1.362   137 H    0.962
    66   6 C    3.988 --    65 C    1.477    67 C    1.365   138 H    0.960
    67   6 C    3.985 --    68 C    1.368    66 C    1.365    70 C    1.072
    68   6 C    3.984 --    69 C    1.474    67 C    1.368   139 H    0.950
    69   6 C    3.986 --    68 C    1.474    64 C    1.368   140 H    0.966
    70   6 C    3.984 --    71 C    1.386    75 C    1.312    67 C    1.072
    71   6 C    3.986 --    72 C    1.454    70 C    1.386   141 H    0.961
    72   6 C    3.990 --    71 C    1.454    73 C    1.418   142 H    0.969
    73   6 C    3.981 --    74 C    1.448    72 C    1.418   143 H    0.969
    74   6 C    3.988 --    73 C    1.448    75 C    1.381   144 H    0.962
    75   6 C    3.928 --    74 C    1.381    70 C    1.312    76 O    1.034
    76   8 O    2.211 --    75 C    1.034    77 C    0.973
    77   6 C    3.935 --   145 H    0.978   146 H    0.976   147 H    0.973
                            76 O    0.973
    78   1 H    0.996 --     4 C    0.962
    79   1 H    0.994 --     6 C    0.961
    80   1 H    0.998 --     7 C    0.949
    81   1 H    0.994 --     8 C    0.952
    82   1 H    0.996 --     9 C    0.936
    83   1 H    0.993 --    10 C    0.954
    84   1 H    0.997 --    11 C    0.947
    85   1 H    0.998 --    13 C    0.968
    86   1 H    0.995 --    13 C    0.946
    87   1 H    0.880 --    14 O    0.866
    88   1 H    0.895 --    15 O    0.841
    89   1 H    0.995 --    18 C    0.967
    90   1 H    0.997 --    18 C    0.966
    91   1 H    0.877 --    19 O    0.857
    92   1 H    1.000 --    20 C    0.937
    93   1 H    0.998 --    22 C    0.947
    94   1 H    0.997 --    23 C    0.956
    95   1 H    0.996 --    24 C    0.945
    96   1 H    0.992 --    25 C    0.953
    97   1 H    0.870 --    26 O    0.852
    98   1 H    0.865 --    28 O    0.842
    99   1 H    0.990 --    29 C    0.963
   100   1 H    0.991 --    29 C    0.953
   101   1 H    0.993 --    34 C    0.960
   102   1 H    0.995 --    36 C    0.951
   103   1 H    0.994 --    37 C    0.957
   104   1 H    0.996 --    38 C    0.960
   105   1 H    0.995 --    39 C    0.969
   106   1 H    0.986 --    39 C    0.947
   107   1 H    0.999 --    40 C    0.965
   108   1 H    0.998 --    41 C    0.960
   109   1 H    0.882 --    42 O    0.868
   110   1 H    0.998 --    43 C    0.962
   111   1 H    0.998 --    44 C    0.954
   112   1 H    0.999 --    45 C    0.967
   113   1 H    0.997 --    46 C    0.957
   114   1 H    0.998 --    46 C    0.978
   115   1 H    0.998 --    47 C    0.970
   116   1 H    0.998 --    47 C    0.973
   117   1 H    1.000 --    48 C    0.976
   118   1 H    0.999 --    48 C    0.976
   119   1 H    1.000 --    49 C    0.977
   120   1 H    0.999 --    49 C    0.976
   121   1 H    0.999 --    50 C    0.987
   122   1 H    0.998 --    50 C    0.981
   123   1 H    0.999 --    50 C    0.984
   124   1 H    0.867 --    51 O    0.847
   125   1 H    0.870 --    52 O    0.852
   126   1 H    1.000 --    53 C    0.945
   127   1 H    0.996 --    54 C    0.955
   128   1 H    0.999 --    55 C    0.960
   129   1 H    0.997 --    56 C    0.957
   130   1 H    1.000 --    57 C    0.948
   131   1 H    0.996 --    59 C    0.960
   132   1 H    0.991 --    59 C    0.963
   133   1 H    0.864 --    60 O    0.842
   134   1 H    0.865 --    61 O    0.848
   135   1 H    0.871 --    62 O    0.854
   136   1 H    0.904 --    63 O    0.851
   137   1 H    0.996 --    65 C    0.962
   138   1 H    0.996 --    66 C    0.960
   139   1 H    0.992 --    68 C    0.950
   140   1 H    0.996 --    69 C    0.966
   141   1 H    0.996 --    71 C    0.961
   142   1 H    0.997 --    72 C    0.969
   143   1 H    0.997 --    73 C    0.969
   144   1 H    0.996 --    74 C    0.962
   145   1 H    0.997 --    77 C    0.978
   146   1 H    0.994 --    77 C    0.976
   147   1 H    0.997 --    77 C    0.973
 ---------------------------------------------------------------------------

Topologies differ in total number of bonds
Writing topology from bond orders to xtbtopo.mol

molecular dipole:
                 x           y           z       tot (Debye)
 q only:        4.116       0.965       0.123
   full:        3.838       1.350       0.070      10.342
molecular quadrupole (traceless):
                xx          xy          yy          xz          yz          zz
 q only:       20.522       2.664      21.704      -0.151      -9.795     -42.226
  q+dip:       17.623       4.997      20.049       0.545     -10.768     -37.672
   full:       19.311       8.086      20.094      -0.544     -15.294     -39.406


           -------------------------------------------------
          | TOTAL ENERGY             -242.989884537404 Eh   |
          | GRADIENT NORM               0.125374065762 Eh/α |
          | HOMO-LUMO GAP               1.650157049079 eV   |
           -------------------------------------------------

------------------------------------------------------------------------
 * finished run on 2026/06/19 at 18:53:08.737     
------------------------------------------------------------------------
 total:
 * wall-time:     0 d,  0 h,  0 min,  0.329 sec
 *  cpu-time:     0 d,  0 h,  0 min,  4.994 sec
 * ratio c/w:    15.193 speedup
 SCF:
 * wall-time:     0 d,  0 h,  0 min,  0.279 sec
 *  cpu-time:     0 d,  0 h,  0 min,  4.375 sec
 * ratio c/w:    15.671 speedup

normal termination of xtb
