      -----------------------------------------------------------      
     |                   =====================                   |     
     |                           x T B                           |     
     |                   =====================                   |     
     |                         S. Grimme                         |     
     |          Mulliken Center for Theoretical Chemistry        |     
     |                    University of Bonn                     |     
      -----------------------------------------------------------      

   * xtb version 6.7.1 (edcfbbe) compiled by 'albert@albert-system' on 2024-07-22

   xtb is free software: you can redistribute it and/or modify it under
   the terms of the GNU Lesser General Public License as published by
   the Free Software Foundation, either version 3 of the License, or
   (at your option) any later version.
   
   xtb is distributed in the hope that it will be useful,
   but WITHOUT ANY WARRANTY; without even the implied warranty of
   MERCHANTABILITY or FITNESS FOR A PARTICULAR PURPOSE.  See the
   GNU Lesser General Public License for more details.
   
   Cite this work as:
   * C. Bannwarth, E. Caldeweyher, S. Ehlert, A. Hansen, P. Pracht,
     J. Seibert, S. Spicher, S. Grimme, WIREs Comput. Mol. Sci., 2020, 11,
     e01493. DOI: 10.1002/wcms.1493
   
   for GFN2-xTB:
   * C. Bannwarth, S. Ehlert and S. Grimme., J. Chem. Theory Comput., 2019,
     15, 1652-1671. DOI: 10.1021/acs.jctc.8b01176
   for GFN1-xTB:
   * S. Grimme, C. Bannwarth, P. Shushkov, J. Chem. Theory Comput., 2017,
     13, 1989-2009. DOI: 10.1021/acs.jctc.7b00118
   for GFN0-xTB:
   * P. Pracht, E. Caldeweyher, S. Ehlert, S. Grimme, ChemRxiv, 2019, preprint.
     DOI: 10.26434/chemrxiv.8326202.v1
   for GFN-FF:
   * S. Spicher and S. Grimme, Angew. Chem. Int. Ed., 2020, 59, 15665-15673.
     DOI: 10.1002/anie.202004239
   
   for ALPB and GBSA implicit solvation:
   * S. Ehlert, M. Stahn, S. Spicher, S. Grimme, J. Chem. Theory Comput.,
     2021, 17, 4250-4261. DOI: 10.1021/acs.jctc.1c00471
   
   for ddCOSMO and CPCM-X implicit solvation:
   * M. Stahn, S. Ehlert, S. Grimme, J. Phys. Chem. A,
     2023, XX, XXXX-XXXX. DOI: 10.1021/acs.jpca.3c04382
   
   for DFT-D4:
   * E. Caldeweyher, C. Bannwarth and S. Grimme, J. Chem. Phys., 2017,
     147, 034112. DOI: 10.1063/1.4993215
   * E. Caldeweyher, S. Ehlert, A. Hansen, H. Neugebauer, S. Spicher,
     C. Bannwarth and S. Grimme, J. Chem. Phys., 2019, 150, 154122.
     DOI: 10.1063/1.5090222
   * E. Caldeweyher, J.-M. Mewes, S. Ehlert and S. Grimme, Phys. Chem. Chem. Phys.
     2020, 22, 8499-8512. DOI: 10.1039/D0CP00502A
   
   for sTDA-xTB:
   * S. Grimme and C. Bannwarth, J. Chem. Phys., 2016, 145, 054103.
     DOI: 10.1063/1.4959605
   
   in the mass-spec context:
   * V. Asgeirsson, C. Bauer and S. Grimme, Chem. Sci., 2017, 8, 4879.
     DOI: 10.1039/c7sc00601b
   * J. Koopman and S. Grimme, ACS Omega 2019, 4, 12, 15120-15133.
     DOI: 10.1021/acsomega.9b02011
   
   for metadynamics refer to:
   * S. Grimme, J. Chem. Theory Comput., 2019, 155, 2847-2862
     DOI: 10.1021/acs.jctc.9b00143
   
   for SPH calculations refer to:
   * S. Spicher and S. Grimme, J. Chem. Theory Comput., 2021, 17, 1701-1714
     DOI: 10.1021/acs.jctc.0c01306
   
   for ONIOM refer to:
   * C. Plett, A. Katbashev, S. Ehlert, S. Grimme, M. Bursch,
     Phys. Chem. Chem. Phys., 2023, 25, 17860-17868. DOI: 10.1039/D3CP02178E
   
   for DIPRO refer to:
   * J. Kohn, N. Gildemeister, S. Grimme, D. Fazzi, A. Hansen,
     J. Chem. Phys., 2023, just accepted.
   
   for PTB refer to:
   * S. Grimme, M. Mueller, A. Hansen, J. Chem. Phys., 2023, 158, 124111.
     DOI: 10.1063/5.0137838
   
   with help from (in alphabetical order)
   P. Atkinson, C. Bannwarth, F. Bohle, G. Brandenburg, E. Caldeweyher
   M. Checinski, S. Dohm, S. Ehlert, S. Ehrlich, I. Gerasimov, C. Hölzer
   A. Katbashev, J. Kohn, J. Koopman, C. Lavigne, S. Lehtola, F. März, M. Müller,
   F. Musil, H. Neugebauer, J. Pisarek, C. Plett, P. Pracht, F. Pultar,
   J. Seibert, P. Shushkov, S. Spicher, M. Stahn, M. Steiner, T. Strunk,
   J. Stückrath, T. Rose, and J. Unsleber
   
 * started run on 2026/06/19 at 18:53:07.733     
   ID    Z sym.   atoms
    1    6 C      1-11, 13, 18, 20, 22-25, 29, 31, 33, 34, 36-41, 43-50,
                  53-57, 59, 64-75, 77
    2    8 O      12, 14-17, 19, 21, 26-28, 30, 32, 35, 42, 51, 52, 58,
                  60-63, 76
    3    1 H      78-147

           -------------------------------------------------
          |                Calculation Setup                |
           -------------------------------------------------

          program call               : xtb PAPU-0090/conf03.xyz --gfn 2 --alpb octanol --chrg 0 --uhf 0 --namespace PAPU-0090/conf03_octanol
          hostname                   : cpu10
          calculation namespace      : PAPU-0090/conf03_octanol
          coordinate file            : PAPU-0090/conf03.xyz
          omp threads                :                    16


           -------------------------------------------------
          |                 G F N 2 - x T B                 |
           -------------------------------------------------

        Reference                      10.1021/acs.jctc.8b01176
      * Hamiltonian:
        H0-scaling (s, p, d)           1.850000    2.230000    2.230000
        zeta-weighting                 0.500000
      * Dispersion:
        s8                             2.700000
        a1                             0.520000
        a2                             5.000000
        s9                             5.000000
      * Repulsion:
        kExp                           1.500000    1.000000
        rExp                           1.000000
      * Coulomb:
        alpha                          2.000000
        third order                    shell-resolved
        anisotropic                    true
        a3                             3.000000
        a5                             4.000000
        cn-shift                       1.200000
        cn-exp                         4.000000
        max-rad                        5.000000

      * Solvation model:               ALPB
        Solvent                        octanol
        Parameter file                 internal GFN2-xTB/ALPB
        Dielectric constant                9.8629E+00
        Reference state                gsolv [1 M gas/solution]
        Free energy shift                  2.3397E-03 Eh       1.4682E+00 kcal/mol
        Temperature                        2.9815E+02 K
        Density                            8.3000E-01 kg/L
        Solvent mass                       1.3023E+02 g/mol
        Interaction kernel             P16
        Born radius scaling (c1)           1.5898E+00
        Born radii integrator          GBOBC
        Born offset                        0.0000E+00 a0       0.0000E+00 AA
        H-bond correction              true
        Ion screening                  false
        Surface tension                    1.0000E-05 Eh       1.5569E+01 dyn/cm
        Grid points                               230 per atom

          ...................................................
          :                      SETUP                      :
          :.................................................:
          :  # basis functions                 378          :
          :  # atomic orbitals                 378          :
          :  # shells                          224          :
          :  # electrons                       422          :
          :  max. iterations                   250          :
          :  Hamiltonian                  GFN2-xTB          :
          :  restarted?                      false          :
          :  GBSA solvation                   true          :
          :  PC potential                    false          :
          :  electronic temp.          300.0000000     K    :
          :  accuracy                    1.0000000          :
          :  -> integral cutoff          0.2500000E+02      :
          :  -> integral neglect         0.1000000E-07      :
          :  -> SCF convergence          0.1000000E-05 Eh   :
          :  -> wf. convergence          0.1000000E-03 e    :
          :  Broyden damping             0.4000000          :
          :  net charge                          0          :
          :  unpaired electrons                  0          :
          ...................................................

 iter      E             dE          RMSdq      gap      omega  full diag
   1   -245.3666783 -0.245367E+03  0.442E+00    2.52       0.0  T
   2   -245.6079197 -0.241241E+00  0.244E+00    1.59       1.0  T
   3   -245.5919919  0.159278E-01  0.103E+00    1.57       1.0  T
   4   -245.6302798 -0.382879E-01  0.310E-01    1.29       1.0  T
   5   -245.6362660 -0.598620E-02  0.132E-01    1.28       1.0  T
   6   -245.6372052 -0.939202E-03  0.633E-02    1.30       1.0  T
   7   -245.6373363 -0.131111E-03  0.278E-02    1.31       1.0  T
   8   -245.6373632 -0.268938E-04  0.120E-02    1.31       1.0  T
   9   -245.6373691 -0.590358E-05  0.577E-03    1.31       1.4  T
  10   -245.6373712 -0.211717E-05  0.290E-03    1.31       2.8  T
  11   -245.6373716 -0.367383E-06  0.133E-03    1.31       6.2  T
  12   -245.6373716 -0.335137E-07  0.592E-04    1.31      13.9  T
  13   -245.6373716 -0.173750E-07  0.244E-04    1.31      33.8  T

   *** convergence criteria satisfied after 13 iterations ***

         #    Occupation            Energy/Eh            Energy/eV
      -------------------------------------------------------------
         1        2.0000           -0.7892439             -21.4764
       ...           ...                  ...                  ...
       205        2.0000           -0.4087998             -11.1240
       206        2.0000           -0.4060337             -11.0487
       207        2.0000           -0.4035539             -10.9813
       208        2.0000           -0.3955614             -10.7638
       209        2.0000           -0.3839247             -10.4471
       210        2.0000           -0.3819585             -10.3936
       211        2.0000           -0.3759870             -10.2311 (HOMO)
       212                         -0.3279630              -8.9243 (LUMO)
       213                         -0.2900226              -7.8919
       214                         -0.2459243              -6.6919
       215                         -0.2432935              -6.6204
       216                         -0.2354451              -6.4068
       ...                                ...                  ...
       378                          0.6792008              18.4820
      -------------------------------------------------------------
                  HL-Gap            0.0480241 Eh            1.3068 eV
             Fermi-level           -0.3519750 Eh           -9.5777 eV

 SCC (total)                   0 d,  0 h,  0 min,  0.268 sec
 SCC setup                      ...        0 min,  0.003 sec (  1.139%)
 Dispersion                     ...        0 min,  0.005 sec (  1.804%)
 classical contributions        ...        0 min,  0.000 sec (  0.046%)
 integral evaluation            ...        0 min,  0.012 sec (  4.287%)
 iterations                     ...        0 min,  0.207 sec ( 76.994%)
 molecular gradient             ...        0 min,  0.040 sec ( 14.847%)
 printout                       ...        0 min,  0.002 sec (  0.867%)

         :::::::::::::::::::::::::::::::::::::::::::::::::::::
         ::                     SUMMARY                     ::
         :::::::::::::::::::::::::::::::::::::::::::::::::::::
         :: total energy            -242.981057361682 Eh    ::
         :: total w/o Gsasa/hb      -242.899647206467 Eh    ::
         :: gradient norm              0.124475155961 Eh/a0 ::
         :: HOMO-LUMO gap              1.306802053278 eV    ::
         ::.................................................::
         :: SCC energy              -245.627527845670 Eh    ::
         :: -> isotropic ES            0.544779437102 Eh    ::
         :: -> anisotropic ES         -0.024785144850 Eh    ::
         :: -> anisotropic XC          0.020987164907 Eh    ::
         :: -> dispersion             -0.189117014945 Eh    ::
         :: -> Gsolv                  -0.112050861607 Eh    ::
         ::    -> Gelec               -0.030640706391 Eh    ::
         ::    -> Gsasa               -0.033866363106 Eh    ::
         ::    -> Ghb                 -0.049883461485 Eh    ::
         ::    -> Gshift               0.002339669376 Eh    ::
         :: repulsion energy           2.646470483988 Eh    ::
         :: add. restraining           0.000000000000 Eh    ::
         :: total charge               0.000000000000 e     ::
         :::::::::::::::::::::::::::::::::::::::::::::::::::::

           -------------------------------------------------
          |                Property Printout                |
           -------------------------------------------------

    * Orbital Energies and Occupations

         #    Occupation            Energy/Eh            Energy/eV
      -------------------------------------------------------------
         1        2.0000           -0.7892439             -21.4764
       ...           ...                  ...                  ...
       199        2.0000           -0.4243315             -11.5466
       200        2.0000           -0.4227695             -11.5041
       201        2.0000           -0.4196256             -11.4186
       202        2.0000           -0.4174470             -11.3593
       203        2.0000           -0.4164978             -11.3335
       204        2.0000           -0.4150989             -11.2954
       205        2.0000           -0.4087998             -11.1240
       206        2.0000           -0.4060337             -11.0487
       207        2.0000           -0.4035539             -10.9813
       208        2.0000           -0.3955614             -10.7638
       209        2.0000           -0.3839247             -10.4471
       210        2.0000           -0.3819585             -10.3936
       211        2.0000           -0.3759870             -10.2311 (HOMO)
       212                         -0.3279630              -8.9243 (LUMO)
       213                         -0.2900226              -7.8919
       214                         -0.2459243              -6.6919
       215                         -0.2432935              -6.6204
       216                         -0.2354451              -6.4068
       217                         -0.2334657              -6.3529
       218                         -0.2311835              -6.2908
       219                         -0.2232409              -6.0747
       220                         -0.2218109              -6.0358
       221                         -0.1912879              -5.2052
       222                         -0.1747763              -4.7559
       ...                                ...                  ...
       378                          0.6792008              18.4820
      -------------------------------------------------------------
                  HL-Gap            0.0480241 Eh            1.3068 eV
             Fermi-level           -0.3519750 Eh           -9.5777 eV

     #   Z          covCN         q      C6AA      α(0)
     1   6 C        2.840     0.142    24.906     8.179
     2   6 C        2.971    -0.045    29.109     8.850
     3   6 C        2.965     0.011    27.770     8.644
     4   6 C        2.928    -0.080    29.988     8.981
     5   6 C        2.836     0.150    24.739     8.151
     6   6 C        2.921    -0.106    30.684     9.084
     7   6 C        3.747     0.096    19.059     6.227
     8   6 C        3.719     0.097    19.096     6.242
     9   6 C        3.754     0.100    18.988     6.214
    10   6 C        3.743     0.089    19.168     6.246
    11   6 C        3.744     0.080    19.314     6.269
    12   8 O        1.695    -0.354    19.967     6.033
    13   6 C        3.681     0.077    19.494     6.323
    14   8 O        1.652    -0.500    22.891     6.459
    15   8 O        1.651    -0.494    22.766     6.441
    16   8 O        1.698    -0.327    19.476     5.958
    17   8 O        1.701    -0.294    18.892     5.868
    18   6 C        3.675     0.070    19.637     6.350
    19   8 O        1.654    -0.474    22.342     6.381
    20   6 C        3.645     0.249    17.048     5.934
    21   8 O        1.696    -0.358    20.035     6.043
    22   6 C        3.750     0.107    18.876     6.196
    23   6 C        3.723     0.093    19.145     6.249
    24   6 C        3.722     0.082    19.320     6.277
    25   6 C        3.760     0.084    19.233     6.252
    26   8 O        1.654    -0.479    22.452     6.396
    27   8 O        1.699    -0.320    19.338     5.937
    28   8 O        1.653    -0.481    22.486     6.401
    29   6 C        3.729     0.066    19.560     6.314
    30   8 O        1.703    -0.273    18.531     5.812
    31   6 C        2.750     0.360    20.896     7.485
    32   8 O        0.857    -0.461    22.946     6.422
    33   6 C        2.729     0.354    20.992     7.501
    34   6 C        2.898    -0.097    30.429     9.045
    35   8 O        0.858    -0.488    23.522     6.503
    36   6 C        2.901    -0.005    28.156     8.700
    37   6 C        2.899    -0.048    29.187     8.858
    38   6 C        2.893    -0.009    28.244     8.713
    39   6 C        3.805    -0.077    21.972     6.673
    40   6 C        3.727     0.123    18.662     6.168
    41   6 C        2.895    -0.076    29.895     8.965
    42   8 O        1.652    -0.499    22.880     6.457
    43   6 C        2.898    -0.037    28.925     8.818
    44   6 C        2.899    -0.060    29.480     8.902
    45   6 C        2.894    -0.044    29.084     8.842
    46   6 C        3.805    -0.067    21.783     6.644
    47   6 C        3.801    -0.055    21.559     6.611
    48   6 C        3.800    -0.065    21.739     6.638
    49   6 C        3.799    -0.053    21.534     6.607
    50   6 C        3.751    -0.104    22.540     6.771
    51   8 O        1.657    -0.437    21.587     6.272
    52   8 O        1.657    -0.435    21.533     6.264
    53   6 C        3.662     0.230    17.253     5.959
    54   6 C        3.721     0.082    19.321     6.278
    55   6 C        3.722     0.095    19.113     6.243
    56   6 C        3.721     0.078    19.388     6.289
    57   6 C        3.746     0.093    19.112     6.236
    58   8 O        1.697    -0.365    20.160     6.062
    59   6 C        3.675     0.068    19.661     6.354
    60   8 O        1.654    -0.447    21.787     6.301
    61   8 O        1.653    -0.468    22.220     6.363
    62   8 O        1.654    -0.480    22.474     6.400
    63   8 O        1.652    -0.470    22.262     6.369
    64   6 C        2.975    -0.025    28.622     8.776
    65   6 C        2.925    -0.020    28.496     8.754
    66   6 C        2.926    -0.029    28.719     8.788
    67   6 C        2.976     0.033    27.253     8.563
    68   6 C        2.925    -0.035    28.866     8.811
    69   6 C        2.925    -0.026    28.659     8.779
    70   6 C        2.975    -0.013    28.327     8.730
    71   6 C        2.923    -0.038    28.934     8.821
    72   6 C        2.920    -0.045    29.111     8.848
    73   6 C        2.920    -0.034    28.843     8.807
    74   6 C        2.919    -0.069    29.729     8.941
    75   6 C        2.866     0.137    25.008     8.197
    76   8 O        1.702    -0.292    18.847     5.861
    77   6 C        3.648     0.026    20.462     6.499
    78   1 H        0.926     0.071     2.071     2.250
    79   1 H        0.926     0.073     2.049     2.238
    80   1 H        0.924     0.061     2.190     2.314
    81   1 H        0.923     0.047     2.354     2.399
    82   1 H        0.924     0.048     2.351     2.398
    83   1 H        0.923     0.084     1.938     2.177
    84   1 H        0.924     0.065     2.137     2.286
    85   1 H        0.924     0.036     2.506     2.475
    86   1 H        0.924     0.040     2.451     2.448
    87   1 H        0.802     0.335     0.624     1.241
    88   1 H        0.803     0.339     0.615     1.232
    89   1 H        0.924     0.049     2.329     2.386
    90   1 H        0.924     0.071     2.072     2.251
    91   1 H        0.804     0.352     0.584     1.201
    92   1 H        0.923     0.006     2.964     2.692
    93   1 H        0.923     0.040     2.456     2.451
    94   1 H        0.923     0.058     2.223     2.332
    95   1 H        0.923     0.060     2.194     2.316
    96   1 H        0.924     0.091     1.871     2.139
    97   1 H        0.804     0.361     0.563     1.179
    98   1 H        0.803     0.367     0.550     1.165
    99   1 H        0.924     0.091     1.865     2.136
   100   1 H        0.924     0.078     1.998     2.211
   101   1 H        0.926     0.098     1.806     2.102
   102   1 H        0.926     0.074     2.047     2.237
   103   1 H        0.926     0.078     1.997     2.210
   104   1 H        0.926     0.073     2.054     2.241
   105   1 H        0.924     0.076     2.022     2.223
   106   1 H        0.924     0.080     1.978     2.200
   107   1 H        0.923     0.028     2.617     2.530
   108   1 H        0.926     0.063     2.166     2.301
   109   1 H        0.804     0.341     0.609     1.226
   110   1 H        0.926     0.049     2.327     2.385
   111   1 H        0.926     0.052     2.298     2.370
   112   1 H        0.926     0.043     2.415     2.430
   113   1 H        0.924     0.038     2.479     2.462
   114   1 H        0.924     0.050     2.321     2.382
   115   1 H        0.924     0.038     2.473     2.459
   116   1 H        0.924     0.018     2.771     2.603
   117   1 H        0.924     0.037     2.486     2.466
   118   1 H        0.924     0.035     2.517     2.481
   119   1 H        0.923     0.023     2.682     2.561
   120   1 H        0.924     0.032     2.553     2.499
   121   1 H        0.924     0.025     2.654     2.548
   122   1 H        0.924     0.041     2.438     2.442
   123   1 H        0.924     0.034     2.526     2.485
   124   1 H        0.803     0.348     0.592     1.209
   125   1 H        0.804     0.361     0.564     1.180
   126   1 H        0.923     0.015     2.808     2.620
   127   1 H        0.924     0.051     2.313     2.378
   128   1 H        0.923     0.031     2.569     2.507
   129   1 H        0.923     0.075     2.028     2.227
   130   1 H        0.924    -0.000     3.065     2.738
   131   1 H        0.924     0.063     2.161     2.299
   132   1 H        0.924     0.086     1.918     2.166
   133   1 H        0.804     0.339     0.614     1.231
   134   1 H        0.804     0.364     0.558     1.173
   135   1 H        0.804     0.361     0.563     1.179
   136   1 H        0.801     0.313     0.683     1.298
   137   1 H        0.926     0.062     2.177     2.307
   138   1 H        0.926     0.069     2.098     2.265
   139   1 H        0.926     0.063     2.161     2.299
   140   1 H        0.926     0.060     2.204     2.322
   141   1 H        0.926     0.052     2.291     2.367
   142   1 H        0.926     0.047     2.358     2.402
   143   1 H        0.926     0.050     2.326     2.385
   144   1 H        0.926     0.052     2.291     2.367
   145   1 H        0.924     0.051     2.312     2.378
   146   1 H        0.924     0.050     2.316     2.380
   147   1 H        0.924     0.071     2.077     2.253

 Mol. C6AA /au·bohr⁶  :     216123.145157
 Mol. C8AA /au·bohr⁸  :    4959632.140518
 Mol. α(0) /au        :        702.293002


Wiberg/Mayer (AO) data.
largest (>0.10) Wiberg bond orders for each atom

 ---------------------------------------------------------------------------
     #   Z sym  total        # sym  WBO       # sym  WBO       # sym  WBO
 ---------------------------------------------------------------------------
     1   6 C    3.944 --     6 C    1.383     2 C    1.340    51 O    1.076
     2   6 C    3.971 --     3 C    1.386     1 C    1.340     7 C    0.989
     3   6 C    3.987 --     4 C    1.432     2 C    1.386    13 C    1.003
     4   6 C    3.982 --     3 C    1.432     5 C    1.359    78 H    0.963
     5   6 C    3.944 --     6 C    1.383     4 C    1.359    52 O    1.075
     6   6 C    3.976 --     5 C    1.383     1 C    1.383    79 H    0.961
     7   6 C    3.931 --     2 C    0.989     8 C    0.949    12 O    0.947
                            80 H    0.946
     8   6 C    3.954 --    15 O    0.994     9 C    0.965    81 H    0.959
                             7 C    0.949
     9   6 C    3.928 --    10 C    0.969     8 C    0.965    82 H    0.949
                            17 O    0.937
    10   6 C    3.935 --     9 C    0.969    16 O    0.962    11 C    0.959
                            83 H    0.954
    11   6 C    3.939 --    18 C    0.981    12 O    0.961    10 C    0.959
                            84 H    0.943
    12   8 O    2.073 --    11 C    0.961     7 C    0.947
    13   6 C    3.956 --     3 C    1.003    14 O    0.986    85 H    0.969
                            86 H    0.953
    14   8 O    1.922 --    13 C    0.986    87 H    0.844
    15   8 O    1.925 --     8 C    0.994    88 H    0.832
    16   8 O    2.088 --    20 C    0.980    10 C    0.962
    17   8 O    2.272 --    33 C    1.089     9 C    0.937    35 O    0.142
    18   6 C    3.958 --    19 O    1.013    11 C    0.981    90 H    0.966
                            89 H    0.965
    19   8 O    1.932 --    18 C    1.013    91 H    0.860
    20   6 C    3.924 --    16 O    0.980    21 O    0.959    25 C    0.954
                            92 H    0.939
    21   8 O    2.060 --    20 C    0.959    22 C    0.948
    22   6 C    3.936 --    29 C    0.984    23 C    0.970    93 H    0.952
                            21 O    0.948
    23   6 C    3.966 --    28 O    1.008    22 C    0.970    24 C    0.967
                            94 H    0.955
    24   6 C    3.959 --    26 O    1.000    23 C    0.967    25 C    0.962
                            95 H    0.948
    25   6 C    3.937 --    27 O    0.965    24 C    0.962    20 C    0.954
                            96 H    0.953
    26   8 O    1.933 --    24 C    1.000    97 H    0.852
    27   8 O    2.090 --    53 C    0.983    25 C    0.965
    28   8 O    1.924 --    23 C    1.008    98 H    0.843
    29   6 C    3.926 --    22 C    0.984    30 O    0.963    99 H    0.960
                           100 H    0.952
    30   8 O    2.280 --    31 C    1.091    29 C    0.963    32 O    0.151
    31   6 C    3.890 --    32 O    1.672    30 O    1.091    64 C    1.033
    32   8 O    2.008 --    31 C    1.672    30 O    0.151
    33   6 C    3.895 --    35 O    1.597    34 C    1.090    17 O    1.089
    34   6 C    3.963 --    36 C    1.694    33 C    1.090   101 H    0.954
                            38 C    0.109
    35   8 O    1.958 --    33 C    1.597    17 O    0.142
    36   6 C    3.974 --    34 C    1.694    37 C    1.170   102 H    0.956
    37   6 C    3.984 --    38 C    1.761    36 C    1.170   103 H    0.955
    38   6 C    3.954 --    37 C    1.761    39 C    1.045   104 H    0.961
                            34 C    0.109
    39   6 C    3.985 --    38 C    1.045   105 H    0.964   106 H    0.958
                            40 C    0.944
    40   6 C    3.943 --    41 C    1.003    42 O    0.973   107 H    0.964
                            39 C    0.944
    41   6 C    3.975 --    43 C    1.835    40 C    1.003   108 H    0.954
                            45 C    0.130
    42   8 O    1.912 --    40 C    0.973   109 H    0.868
    43   6 C    3.990 --    41 C    1.835    44 C    1.122   110 H    0.961
    44   6 C    3.988 --    45 C    1.829    43 C    1.122   111 H    0.955
    45   6 C    3.985 --    44 C    1.829    46 C    1.032   112 H    0.965
                            41 C    0.130
    46   6 C    3.995 --    45 C    1.032    47 C    0.987   113 H    0.972
                           114 H    0.961
    47   6 C    3.990 --    48 C    1.007    46 C    0.987   115 H    0.977
                           116 H    0.971
    48   6 C    3.995 --    47 C    1.007    49 C    1.006   117 H    0.977
                           118 H    0.975
    49   6 C    3.996 --    50 C    1.021    48 C    1.006   120 H    0.977
                           119 H    0.977
    50   6 C    3.995 --    49 C    1.021   121 H    0.987   122 H    0.985
                           123 H    0.985
    51   8 O    2.084 --     1 C    1.076   124 H    0.831
    52   8 O    2.084 --     5 C    1.075   125 H    0.851
    53   6 C    3.921 --    27 O    0.983    54 C    0.956    58 O    0.951
                           126 H    0.942
    54   6 C    3.961 --    62 O    1.001    55 C    0.969    53 C    0.956
                           127 H    0.955
    55   6 C    3.968 --    61 O    1.007    54 C    0.969    56 C    0.962
                           128 H    0.956
    56   6 C    3.962 --    60 O    1.013    55 C    0.962    57 C    0.958
                           129 H    0.946
    57   6 C    3.935 --    59 C    0.978    56 C    0.958    58 O    0.948
                           130 H    0.942
    58   8 O    2.060 --    53 C    0.951    57 C    0.948
    59   6 C    3.949 --    63 O    1.007    57 C    0.978   132 H    0.964
                           131 H    0.955
    60   8 O    1.970 --    56 C    1.013   133 H    0.865
    61   8 O    1.933 --    55 C    1.007   134 H    0.849
    62   8 O    1.928 --    54 C    1.001   135 H    0.852
    63   8 O    1.944 --    59 C    1.007   136 H    0.856
    64   6 C    3.976 --    65 C    1.365    69 C    1.364    31 C    1.033
    65   6 C    3.986 --    66 C    1.474    64 C    1.365   137 H    0.965
    66   6 C    3.988 --    65 C    1.474    67 C    1.373   138 H    0.964
    67   6 C    3.986 --    66 C    1.373    68 C    1.372    70 C    1.053
    68   6 C    3.989 --    69 C    1.477    67 C    1.372   139 H    0.965
    69   6 C    3.988 --    68 C    1.477    64 C    1.364   140 H    0.965
    70   6 C    3.984 --    71 C    1.400    75 C    1.313    67 C    1.053
                            73 C    0.101
    71   6 C    3.986 --    72 C    1.447    70 C    1.400   141 H    0.966
    72   6 C    3.990 --    71 C    1.447    73 C    1.424   142 H    0.969
    73   6 C    3.984 --    74 C    1.448    72 C    1.424   143 H    0.969
                            70 C    0.101
    74   6 C    3.987 --    73 C    1.448    75 C    1.379   144 H    0.962
    75   6 C    3.929 --    74 C    1.379    70 C    1.313    76 O    1.047
    76   8 O    2.210 --    75 C    1.047    77 C    0.980
    77   6 C    3.939 --    76 O    0.980   147 H    0.977   146 H    0.976
                           145 H    0.976
    78   1 H    0.994 --     4 C    0.963
    79   1 H    0.994 --     6 C    0.961
    80   1 H    0.996 --     7 C    0.946
    81   1 H    0.998 --     8 C    0.959
    82   1 H    0.998 --     9 C    0.949
    83   1 H    0.992 --    10 C    0.954
    84   1 H    0.996 --    11 C    0.943
    85   1 H    0.998 --    13 C    0.969
    86   1 H    0.998 --    13 C    0.953
    87   1 H    0.887 --    14 O    0.844
    88   1 H    0.885 --    15 O    0.832
    89   1 H    0.997 --    18 C    0.965
    90   1 H    0.994 --    18 C    0.966
    91   1 H    0.876 --    19 O    0.860
    92   1 H    1.000 --    20 C    0.939
    93   1 H    0.998 --    22 C    0.952
    94   1 H    0.996 --    23 C    0.955
    95   1 H    0.996 --    24 C    0.948
    96   1 H    0.991 --    25 C    0.953
    97   1 H    0.869 --    26 O    0.852
    98   1 H    0.865 --    28 O    0.843
    99   1 H    0.990 --    29 C    0.960
   100   1 H    0.993 --    29 C    0.952
   101   1 H    0.990 --    34 C    0.954
   102   1 H    0.995 --    36 C    0.956
   103   1 H    0.994 --    37 C    0.955
   104   1 H    0.995 --    38 C    0.961
   105   1 H    0.994 --    39 C    0.964
   106   1 H    0.988 --    39 C    0.958
   107   1 H    0.998 --    40 C    0.964
   108   1 H    0.996 --    41 C    0.954
   109   1 H    0.882 --    42 O    0.868
   110   1 H    0.997 --    43 C    0.961
   111   1 H    0.997 --    44 C    0.955
   112   1 H    0.998 --    45 C    0.965
   113   1 H    0.999 --    46 C    0.972
   114   1 H    0.992 --    46 C    0.961
   115   1 H    0.999 --    47 C    0.977
   116   1 H    1.000 --    47 C    0.971
   117   1 H    0.999 --    48 C    0.977
   118   1 H    0.999 --    48 C    0.975
   119   1 H    0.999 --    49 C    0.977
   120   1 H    0.999 --    49 C    0.977
   121   1 H    0.999 --    50 C    0.987
   122   1 H    0.998 --    50 C    0.985
   123   1 H    0.998 --    50 C    0.985
   124   1 H    0.878 --    51 O    0.831
   125   1 H    0.869 --    52 O    0.851
   126   1 H    1.000 --    53 C    0.942
   127   1 H    0.997 --    54 C    0.955
   128   1 H    0.999 --    55 C    0.956
   129   1 H    0.994 --    56 C    0.946
   130   1 H    1.000 --    57 C    0.942
   131   1 H    0.995 --    59 C    0.955
   132   1 H    0.993 --    59 C    0.964
   133   1 H    0.885 --    60 O    0.865
   134   1 H    0.867 --    61 O    0.849
   135   1 H    0.869 --    62 O    0.852
   136   1 H    0.902 --    63 O    0.856
   137   1 H    0.996 --    65 C    0.965
   138   1 H    0.995 --    66 C    0.964
   139   1 H    0.996 --    68 C    0.965
   140   1 H    0.996 --    69 C    0.965
   141   1 H    0.997 --    71 C    0.966
   142   1 H    0.997 --    72 C    0.969
   143   1 H    0.997 --    73 C    0.969
   144   1 H    0.997 --    74 C    0.962
   145   1 H    0.997 --    77 C    0.976
   146   1 H    0.997 --    77 C    0.976
   147   1 H    0.994 --    77 C    0.977
 ---------------------------------------------------------------------------

Topologies differ in total number of bonds
Writing topology from bond orders to xtbtopo.mol

molecular dipole:
                 x           y           z       tot (Debye)
 q only:        3.497      -2.639       1.078
   full:        3.424      -3.160       1.200      12.228
molecular quadrupole (traceless):
                xx          xy          yy          xz          yz          zz
 q only:       -1.224      35.207       2.146     -40.033      -4.659      -0.922
  q+dip:        1.668      52.571       3.110     -50.978       6.131      -4.778
   full:       -1.583      49.253       4.998     -47.090       3.937      -3.415


           -------------------------------------------------
          | TOTAL ENERGY             -242.981057361682 Eh   |
          | GRADIENT NORM               0.124475155961 Eh/α |
          | HOMO-LUMO GAP               1.306802053278 eV   |
           -------------------------------------------------

------------------------------------------------------------------------
 * finished run on 2026/06/19 at 18:53:08.051     
------------------------------------------------------------------------
 total:
 * wall-time:     0 d,  0 h,  0 min,  0.318 sec
 *  cpu-time:     0 d,  0 h,  0 min,  4.910 sec
 * ratio c/w:    15.452 speedup
 SCF:
 * wall-time:     0 d,  0 h,  0 min,  0.269 sec
 *  cpu-time:     0 d,  0 h,  0 min,  4.276 sec
 * ratio c/w:    15.880 speedup

normal termination of xtb
