      -----------------------------------------------------------      
     |                   =====================                   |     
     |                           x T B                           |     
     |                   =====================                   |     
     |                         S. Grimme                         |     
     |          Mulliken Center for Theoretical Chemistry        |     
     |                    University of Bonn                     |     
      -----------------------------------------------------------      

   * xtb version 6.7.1 (edcfbbe) compiled by 'albert@albert-system' on 2024-07-22

   xtb is free software: you can redistribute it and/or modify it under
   the terms of the GNU Lesser General Public License as published by
   the Free Software Foundation, either version 3 of the License, or
   (at your option) any later version.
   
   xtb is distributed in the hope that it will be useful,
   but WITHOUT ANY WARRANTY; without even the implied warranty of
   MERCHANTABILITY or FITNESS FOR A PARTICULAR PURPOSE.  See the
   GNU Lesser General Public License for more details.
   
   Cite this work as:
   * C. Bannwarth, E. Caldeweyher, S. Ehlert, A. Hansen, P. Pracht,
     J. Seibert, S. Spicher, S. Grimme, WIREs Comput. Mol. Sci., 2020, 11,
     e01493. DOI: 10.1002/wcms.1493
   
   for GFN2-xTB:
   * C. Bannwarth, S. Ehlert and S. Grimme., J. Chem. Theory Comput., 2019,
     15, 1652-1671. DOI: 10.1021/acs.jctc.8b01176
   for GFN1-xTB:
   * S. Grimme, C. Bannwarth, P. Shushkov, J. Chem. Theory Comput., 2017,
     13, 1989-2009. DOI: 10.1021/acs.jctc.7b00118
   for GFN0-xTB:
   * P. Pracht, E. Caldeweyher, S. Ehlert, S. Grimme, ChemRxiv, 2019, preprint.
     DOI: 10.26434/chemrxiv.8326202.v1
   for GFN-FF:
   * S. Spicher and S. Grimme, Angew. Chem. Int. Ed., 2020, 59, 15665-15673.
     DOI: 10.1002/anie.202004239
   
   for ALPB and GBSA implicit solvation:
   * S. Ehlert, M. Stahn, S. Spicher, S. Grimme, J. Chem. Theory Comput.,
     2021, 17, 4250-4261. DOI: 10.1021/acs.jctc.1c00471
   
   for ddCOSMO and CPCM-X implicit solvation:
   * M. Stahn, S. Ehlert, S. Grimme, J. Phys. Chem. A,
     2023, XX, XXXX-XXXX. DOI: 10.1021/acs.jpca.3c04382
   
   for DFT-D4:
   * E. Caldeweyher, C. Bannwarth and S. Grimme, J. Chem. Phys., 2017,
     147, 034112. DOI: 10.1063/1.4993215
   * E. Caldeweyher, S. Ehlert, A. Hansen, H. Neugebauer, S. Spicher,
     C. Bannwarth and S. Grimme, J. Chem. Phys., 2019, 150, 154122.
     DOI: 10.1063/1.5090222
   * E. Caldeweyher, J.-M. Mewes, S. Ehlert and S. Grimme, Phys. Chem. Chem. Phys.
     2020, 22, 8499-8512. DOI: 10.1039/D0CP00502A
   
   for sTDA-xTB:
   * S. Grimme and C. Bannwarth, J. Chem. Phys., 2016, 145, 054103.
     DOI: 10.1063/1.4959605
   
   in the mass-spec context:
   * V. Asgeirsson, C. Bauer and S. Grimme, Chem. Sci., 2017, 8, 4879.
     DOI: 10.1039/c7sc00601b
   * J. Koopman and S. Grimme, ACS Omega 2019, 4, 12, 15120-15133.
     DOI: 10.1021/acsomega.9b02011
   
   for metadynamics refer to:
   * S. Grimme, J. Chem. Theory Comput., 2019, 155, 2847-2862
     DOI: 10.1021/acs.jctc.9b00143
   
   for SPH calculations refer to:
   * S. Spicher and S. Grimme, J. Chem. Theory Comput., 2021, 17, 1701-1714
     DOI: 10.1021/acs.jctc.0c01306
   
   for ONIOM refer to:
   * C. Plett, A. Katbashev, S. Ehlert, S. Grimme, M. Bursch,
     Phys. Chem. Chem. Phys., 2023, 25, 17860-17868. DOI: 10.1039/D3CP02178E
   
   for DIPRO refer to:
   * J. Kohn, N. Gildemeister, S. Grimme, D. Fazzi, A. Hansen,
     J. Chem. Phys., 2023, just accepted.
   
   for PTB refer to:
   * S. Grimme, M. Mueller, A. Hansen, J. Chem. Phys., 2023, 158, 124111.
     DOI: 10.1063/5.0137838
   
   with help from (in alphabetical order)
   P. Atkinson, C. Bannwarth, F. Bohle, G. Brandenburg, E. Caldeweyher
   M. Checinski, S. Dohm, S. Ehlert, S. Ehrlich, I. Gerasimov, C. Hölzer
   A. Katbashev, J. Kohn, J. Koopman, C. Lavigne, S. Lehtola, F. März, M. Müller,
   F. Musil, H. Neugebauer, J. Pisarek, C. Plett, P. Pracht, F. Pultar,
   J. Seibert, P. Shushkov, S. Spicher, M. Stahn, M. Steiner, T. Strunk,
   J. Stückrath, T. Rose, and J. Unsleber
   
 * started run on 2026/06/19 at 18:52:47.464     
   ID    Z sym.   atoms
    1    6 C      1-11, 13, 18, 20, 22-25, 29, 31, 33, 34, 36-41, 43-50,
                  53-57, 59, 64-77
    2    8 O      12, 14-17, 19, 21, 26-28, 30, 32, 35, 42, 51, 52, 58, 60-63
    3    1 H      78-149

           -------------------------------------------------
          |                Calculation Setup                |
           -------------------------------------------------

          program call               : xtb PAPU-0083/conf03.xyz --gfn 2 --alpb octanol --chrg 0 --uhf 0 --namespace PAPU-0083/conf03_octanol
          hostname                   : cpu10
          calculation namespace      : PAPU-0083/conf03_octanol
          coordinate file            : PAPU-0083/conf03.xyz
          omp threads                :                    16


           -------------------------------------------------
          |                 G F N 2 - x T B                 |
           -------------------------------------------------

        Reference                      10.1021/acs.jctc.8b01176
      * Hamiltonian:
        H0-scaling (s, p, d)           1.850000    2.230000    2.230000
        zeta-weighting                 0.500000
      * Dispersion:
        s8                             2.700000
        a1                             0.520000
        a2                             5.000000
        s9                             5.000000
      * Repulsion:
        kExp                           1.500000    1.000000
        rExp                           1.000000
      * Coulomb:
        alpha                          2.000000
        third order                    shell-resolved
        anisotropic                    true
        a3                             3.000000
        a5                             4.000000
        cn-shift                       1.200000
        cn-exp                         4.000000
        max-rad                        5.000000

      * Solvation model:               ALPB
        Solvent                        octanol
        Parameter file                 internal GFN2-xTB/ALPB
        Dielectric constant                9.8629E+00
        Reference state                gsolv [1 M gas/solution]
        Free energy shift                  2.3397E-03 Eh       1.4682E+00 kcal/mol
        Temperature                        2.9815E+02 K
        Density                            8.3000E-01 kg/L
        Solvent mass                       1.3023E+02 g/mol
        Interaction kernel             P16
        Born radius scaling (c1)           1.5898E+00
        Born radii integrator          GBOBC
        Born offset                        0.0000E+00 a0       0.0000E+00 AA
        H-bond correction              true
        Ion screening                  false
        Surface tension                    1.0000E-05 Eh       1.5569E+01 dyn/cm
        Grid points                               230 per atom

          ...................................................
          :                      SETUP                      :
          :.................................................:
          :  # basis functions                 380          :
          :  # atomic orbitals                 380          :
          :  # shells                          226          :
          :  # electrons                       422          :
          :  max. iterations                   250          :
          :  Hamiltonian                  GFN2-xTB          :
          :  restarted?                      false          :
          :  GBSA solvation                   true          :
          :  PC potential                    false          :
          :  electronic temp.          300.0000000     K    :
          :  accuracy                    1.0000000          :
          :  -> integral cutoff          0.2500000E+02      :
          :  -> integral neglect         0.1000000E-07      :
          :  -> SCF convergence          0.1000000E-05 Eh   :
          :  -> wf. convergence          0.1000000E-03 e    :
          :  Broyden damping             0.4000000          :
          :  net charge                          0          :
          :  unpaired electrons                  0          :
          ...................................................

 iter      E             dE          RMSdq      gap      omega  full diag
   1   -244.5377472 -0.244538E+03  0.439E+00    2.55       0.0  T
   2   -244.7857127 -0.247965E+00  0.242E+00    1.96       1.0  T
   3   -244.7675539  0.181587E-01  0.105E+00    2.00       1.0  T
   4   -244.8059930 -0.384391E-01  0.332E-01    1.76       1.0  T
   5   -244.8140468 -0.805371E-02  0.136E-01    1.76       1.0  T
   6   -244.8150513 -0.100455E-02  0.636E-02    1.78       1.0  T
   7   -244.8151780 -0.126732E-03  0.286E-02    1.79       1.0  T
   8   -244.8152079 -0.298836E-04  0.121E-02    1.79       1.0  T
   9   -244.8152137 -0.573063E-05  0.605E-03    1.79       1.4  T
  10   -244.8152156 -0.190769E-05  0.286E-03    1.79       2.9  T
  11   -244.8152158 -0.271850E-06  0.143E-03    1.79       5.7  T
  12   -244.8152159 -0.543831E-07  0.597E-04    1.79      13.7  T
  13   -244.8152159 -0.140095E-07  0.284E-04    1.79      28.8  T

   *** convergence criteria satisfied after 13 iterations ***

         #    Occupation            Energy/Eh            Energy/eV
      -------------------------------------------------------------
         1        2.0000           -0.7806047             -21.2413
       ...           ...                  ...                  ...
       205        2.0000           -0.4117799             -11.2051
       206        2.0000           -0.4083203             -11.1110
       207        2.0000           -0.4075420             -11.0898
       208        2.0000           -0.4047310             -11.0133
       209        2.0000           -0.3922809             -10.6745
       210        2.0000           -0.3879019             -10.5553
       211        2.0000           -0.3837369             -10.4420 (HOMO)
       212                         -0.3178882              -8.6502 (LUMO)
       213                         -0.2908240              -7.9137
       214                         -0.2504611              -6.8154
       215                         -0.2414443              -6.5700
       216                         -0.2388192              -6.4986
       ...                                ...                  ...
       380                          0.6886444              18.7390
      -------------------------------------------------------------
                  HL-Gap            0.0658487 Eh            1.7918 eV
             Fermi-level           -0.3508126 Eh           -9.5461 eV

 SCC (total)                   0 d,  0 h,  0 min,  0.276 sec
 SCC setup                      ...        0 min,  0.003 sec (  1.159%)
 Dispersion                     ...        0 min,  0.004 sec (  1.539%)
 classical contributions        ...        0 min,  0.000 sec (  0.045%)
 integral evaluation            ...        0 min,  0.012 sec (  4.303%)
 iterations                     ...        0 min,  0.215 sec ( 77.909%)
 molecular gradient             ...        0 min,  0.040 sec ( 14.413%)
 printout                       ...        0 min,  0.002 sec (  0.617%)

         :::::::::::::::::::::::::::::::::::::::::::::::::::::
         ::                     SUMMARY                     ::
         :::::::::::::::::::::::::::::::::::::::::::::::::::::
         :: total energy            -242.104814971589 Eh    ::
         :: total w/o Gsasa/hb      -242.031030706345 Eh    ::
         :: gradient norm              0.117632157135 Eh/a0 ::
         :: HOMO-LUMO gap              1.791833830933 eV    ::
         ::.................................................::
         :: SCC energy              -244.800813812472 Eh    ::
         :: -> isotropic ES            0.524379042305 Eh    ::
         :: -> anisotropic ES         -0.021006106120 Eh    ::
         :: -> anisotropic XC          0.026133083995 Eh    ::
         :: -> dispersion             -0.202847320242 Eh    ::
         :: -> Gsolv                  -0.100974204667 Eh    ::
         ::    -> Gelec               -0.027189939423 Eh    ::
         ::    -> Gsasa               -0.031898721437 Eh    ::
         ::    -> Ghb                 -0.044225213182 Eh    ::
         ::    -> Gshift               0.002339669376 Eh    ::
         :: repulsion energy           2.695998840883 Eh    ::
         :: add. restraining           0.000000000000 Eh    ::
         :: total charge               0.000000000000 e     ::
         :::::::::::::::::::::::::::::::::::::::::::::::::::::

           -------------------------------------------------
          |                Property Printout                |
           -------------------------------------------------

    * Orbital Energies and Occupations

         #    Occupation            Energy/Eh            Energy/eV
      -------------------------------------------------------------
         1        2.0000           -0.7806047             -21.2413
       ...           ...                  ...                  ...
       199        2.0000           -0.4241831             -11.5426
       200        2.0000           -0.4209350             -11.4542
       201        2.0000           -0.4199019             -11.4261
       202        2.0000           -0.4185375             -11.3890
       203        2.0000           -0.4164911             -11.3333
       204        2.0000           -0.4133560             -11.2480
       205        2.0000           -0.4117799             -11.2051
       206        2.0000           -0.4083203             -11.1110
       207        2.0000           -0.4075420             -11.0898
       208        2.0000           -0.4047310             -11.0133
       209        2.0000           -0.3922809             -10.6745
       210        2.0000           -0.3879019             -10.5553
       211        2.0000           -0.3837369             -10.4420 (HOMO)
       212                         -0.3178882              -8.6502 (LUMO)
       213                         -0.2908240              -7.9137
       214                         -0.2504611              -6.8154
       215                         -0.2414443              -6.5700
       216                         -0.2388192              -6.4986
       217                         -0.2369917              -6.4489
       218                         -0.2345436              -6.3823
       219                         -0.2323047              -6.3213
       220                         -0.2206980              -6.0055
       221                         -0.1888633              -5.1392
       222                         -0.1679596              -4.5704
       ...                                ...                  ...
       380                          0.6886444              18.7390
      -------------------------------------------------------------
                  HL-Gap            0.0658487 Eh            1.7918 eV
             Fermi-level           -0.3508126 Eh           -9.5461 eV

     #   Z          covCN         q      C6AA      α(0)
     1   6 C        2.842     0.143    24.880     8.175
     2   6 C        2.969    -0.053    29.318     8.882
     3   6 C        2.964    -0.003    28.097     8.694
     4   6 C        2.929    -0.071    29.779     8.949
     5   6 C        2.837     0.151    24.709     8.146
     6   6 C        2.919    -0.103    30.593     9.070
     7   6 C        3.735     0.102    18.987     6.219
     8   6 C        3.721     0.093    19.154     6.251
     9   6 C        3.762     0.102    18.942     6.204
    10   6 C        3.746     0.089    19.170     6.245
    11   6 C        3.733     0.096    19.082     6.235
    12   8 O        1.692    -0.352    19.931     6.027
    13   6 C        3.683     0.079    19.466     6.318
    14   8 O        1.652    -0.485    22.567     6.413
    15   8 O        1.651    -0.488    22.639     6.423
    16   8 O        1.698    -0.318    19.310     5.933
    17   8 O        1.702    -0.291    18.839     5.860
    18   6 C        3.676     0.069    19.649     6.351
    19   8 O        1.654    -0.471    22.285     6.373
    20   6 C        3.635     0.247    17.112     5.953
    21   8 O        1.696    -0.348    19.847     6.015
    22   6 C        3.741     0.109    18.857     6.196
    23   6 C        3.722     0.088    19.231     6.263
    24   6 C        3.722     0.093    19.141     6.248
    25   6 C        3.732     0.090    19.174     6.250
    26   8 O        1.652    -0.481    22.498     6.403
    27   8 O        1.697    -0.331    19.548     5.969
    28   8 O        1.653    -0.482    22.515     6.405
    29   6 C        3.732     0.067    19.540     6.309
    30   8 O        1.704    -0.268    18.438     5.797
    31   6 C        2.752     0.349    21.078     7.518
    32   8 O        0.857    -0.453    22.773     6.398
    33   6 C        2.732     0.358    20.928     7.490
    34   6 C        2.898    -0.085    30.139     9.001
    35   8 O        0.858    -0.460    22.924     6.419
    36   6 C        2.899    -0.002    28.080     8.688
    37   6 C        2.901    -0.042    29.048     8.837
    38   6 C        2.894    -0.022    28.561     8.762
    39   6 C        3.806    -0.086    22.135     6.698
    40   6 C        3.728     0.119    18.729     6.179
    41   6 C        2.894    -0.071    29.772     8.946
    42   8 O        1.652    -0.492    22.716     6.434
    43   6 C        2.899    -0.037    28.919     8.817
    44   6 C        2.897    -0.054    29.340     8.881
    45   6 C        2.895    -0.042    29.042     8.836
    46   6 C        3.805    -0.068    21.789     6.645
    47   6 C        3.801    -0.054    21.552     6.610
    48   6 C        3.799    -0.062    21.702     6.633
    49   6 C        3.798    -0.053    21.530     6.607
    50   6 C        3.750    -0.113    22.719     6.798
    51   8 O        1.656    -0.432    21.484     6.257
    52   8 O        1.657    -0.428    21.401     6.245
    53   6 C        3.629     0.229    17.397     6.007
    54   6 C        3.723     0.084    19.283     6.271
    55   6 C        3.724     0.095    19.108     6.242
    56   6 C        3.722     0.087    19.234     6.263
    57   6 C        3.738     0.095    19.081     6.233
    58   8 O        1.695    -0.355    19.985     6.036
    59   6 C        3.674     0.066    19.688     6.358
    60   8 O        1.653    -0.483    22.534     6.408
    61   8 O        1.654    -0.481    22.478     6.400
    62   8 O        1.652    -0.479    22.446     6.396
    63   8 O        1.654    -0.484    22.542     6.409
    64   6 C        2.974    -0.032    28.786     8.801
    65   6 C        2.926    -0.028    28.709     8.787
    66   6 C        2.926    -0.037    28.911     8.818
    67   6 C        2.976     0.022    27.519     8.605
    68   6 C        2.926    -0.036    28.903     8.817
    69   6 C        2.924    -0.023    28.584     8.768
    70   6 C        2.975     0.001    28.011     8.682
    71   6 C        2.927    -0.037    28.929     8.821
    72   6 C        2.925    -0.039    28.977     8.828
    73   6 C        2.973     0.020    27.563     8.612
    74   6 C        2.925    -0.042    29.050     8.839
    75   6 C        2.925    -0.038    28.954     8.824
    76   6 C        3.806    -0.062    21.690     6.630
    77   6 C        3.752    -0.110    22.671     6.790
    78   1 H        0.926     0.077     2.007     2.215
    79   1 H        0.926     0.078     2.000     2.212
    80   1 H        0.924     0.033     2.549     2.497
    81   1 H        0.923     0.057     2.232     2.336
    82   1 H        0.924     0.035     2.517     2.481
    83   1 H        0.923     0.093     1.848     2.126
    84   1 H        0.923     0.031     2.576     2.510
    85   1 H        0.924     0.015     2.811     2.622
    86   1 H        0.924     0.058     2.222     2.331
    87   1 H        0.802     0.325     0.651     1.268
    88   1 H        0.803     0.345     0.601     1.218
    89   1 H        0.924     0.084     1.935     2.175
    90   1 H        0.924     0.055     2.262     2.352
    91   1 H        0.803     0.347     0.595     1.212
    92   1 H        0.924     0.008     2.930     2.677
    93   1 H        0.923     0.035     2.518     2.482
    94   1 H        0.923     0.053     2.284     2.363
    95   1 H        0.923     0.047     2.364     2.404
    96   1 H        0.924     0.063     2.165     2.301
    97   1 H        0.802     0.354     0.579     1.196
    98   1 H        0.803     0.367     0.550     1.165
    99   1 H        0.924     0.079     1.985     2.203
   100   1 H        0.924     0.105     1.737     2.061
   101   1 H        0.926     0.101     1.772     2.082
   102   1 H        0.926     0.077     2.015     2.220
   103   1 H        0.926     0.076     2.022     2.224
   104   1 H        0.926     0.051     2.308     2.376
   105   1 H        0.924     0.073     2.056     2.242
   106   1 H        0.924     0.072     2.066     2.248
   107   1 H        0.923     0.038     2.480     2.463
   108   1 H        0.926     0.061     2.188     2.313
   109   1 H        0.804     0.342     0.608     1.224
   110   1 H        0.926     0.025     2.652     2.547
   111   1 H        0.926     0.053     2.289     2.366
   112   1 H        0.926     0.032     2.557     2.501
   113   1 H        0.924     0.053     2.279     2.361
   114   1 H        0.924     0.054     2.267     2.355
   115   1 H        0.924    -0.006     3.167     2.783
   116   1 H        0.924     0.047     2.363     2.404
   117   1 H        0.924     0.040     2.454     2.450
   118   1 H        0.924     0.029     2.598     2.520
   119   1 H        0.924     0.024     2.669     2.555
   120   1 H        0.923     0.033     2.539     2.492
   121   1 H        0.924     0.039     2.458     2.452
   122   1 H        0.924     0.036     2.497     2.471
   123   1 H        0.925     0.036     2.502     2.473
   124   1 H        0.803     0.336     0.623     1.240
   125   1 H        0.804     0.362     0.561     1.177
   126   1 H        0.924     0.054     2.268     2.355
   127   1 H        0.923     0.039     2.468     2.457
   128   1 H        0.923     0.037     2.486     2.466
   129   1 H        0.923     0.060     2.199     2.319
   130   1 H        0.923     0.038     2.477     2.461
   131   1 H        0.924     0.057     2.231     2.336
   132   1 H        0.924     0.076     2.021     2.223
   133   1 H        0.803     0.367     0.550     1.165
   134   1 H        0.804     0.365     0.554     1.169
   135   1 H        0.802     0.336     0.621     1.238
   136   1 H        0.803     0.354     0.580     1.196
   137   1 H        0.926     0.051     2.308     2.375
   138   1 H        0.926     0.061     2.183     2.311
   139   1 H        0.926     0.064     2.158     2.297
   140   1 H        0.926     0.063     2.167     2.302
   141   1 H        0.926     0.032     2.560     2.502
   142   1 H        0.926     0.044     2.393     2.419
   143   1 H        0.926     0.045     2.382     2.414
   144   1 H        0.926     0.044     2.402     2.424
   145   1 H        0.924     0.040     2.446     2.446
   146   1 H        0.924     0.042     2.419     2.432
   147   1 H        0.924     0.053     2.289     2.366
   148   1 H        0.924     0.042     2.427     2.436
   149   1 H        0.924     0.037     2.495     2.470

 Mol. C6AA /au·bohr⁶  :     220234.673476
 Mol. C8AA /au·bohr⁸  :    5051356.155801
 Mol. α(0) /au        :        709.438754


Wiberg/Mayer (AO) data.
largest (>0.10) Wiberg bond orders for each atom

 ---------------------------------------------------------------------------
     #   Z sym  total        # sym  WBO       # sym  WBO       # sym  WBO
 ---------------------------------------------------------------------------
     1   6 C    3.943 --     6 C    1.390     2 C    1.334    51 O    1.073
     2   6 C    3.966 --     3 C    1.385     1 C    1.334     7 C    0.989
     3   6 C    3.986 --     4 C    1.431     2 C    1.385    13 C    1.000
     4   6 C    3.983 --     3 C    1.431     5 C    1.359    78 H    0.963
     5   6 C    3.946 --     6 C    1.380     4 C    1.359    52 O    1.079
     6   6 C    3.977 --     1 C    1.390     5 C    1.380    79 H    0.960
     7   6 C    3.935 --     2 C    0.989    80 H    0.951     8 C    0.948
                            12 O    0.944
     8   6 C    3.953 --    15 O    0.992     9 C    0.967    81 H    0.957
                             7 C    0.948
     9   6 C    3.937 --    10 C    0.968     8 C    0.967    17 O    0.946
                            82 H    0.945
    10   6 C    3.933 --     9 C    0.968    11 C    0.961    16 O    0.959
                            83 H    0.950
    11   6 C    3.944 --    18 C    0.978    10 C    0.961    12 O    0.961
                            84 H    0.954
    12   8 O    2.074 --    11 C    0.961     7 C    0.944
    13   6 C    3.960 --     3 C    1.000    14 O    0.992    86 H    0.967
                            85 H    0.950
    14   8 O    1.931 --    13 C    0.992    87 H    0.846
    15   8 O    1.951 --     8 C    0.992    88 H    0.824
    16   8 O    2.119 --    20 C    0.981    10 C    0.959
    17   8 O    2.261 --    33 C    1.073     9 C    0.946    35 O    0.141
    18   6 C    3.954 --    19 O    1.014    11 C    0.978    90 H    0.963
                            89 H    0.960
    19   8 O    1.938 --    18 C    1.014    91 H    0.864
    20   6 C    3.930 --    16 O    0.981    21 O    0.962    25 C    0.955
                            92 H    0.941
    21   8 O    2.064 --    20 C    0.962    22 C    0.951
    22   6 C    3.938 --    29 C    0.982    23 C    0.969    93 H    0.952
                            21 O    0.951
    23   6 C    3.966 --    28 O    1.008    22 C    0.969    24 C    0.964
                            94 H    0.956
    24   6 C    3.963 --    26 O    1.004    23 C    0.964    25 C    0.964
                            95 H    0.950
    25   6 C    3.942 --    24 C    0.964    27 O    0.960    20 C    0.955
                            96 H    0.954
    26   8 O    1.933 --    24 C    1.004    97 H    0.823
    27   8 O    2.101 --    53 C    0.984    25 C    0.960
    28   8 O    1.923 --    23 C    1.008    98 H    0.840
    29   6 C    3.928 --    22 C    0.982    30 O    0.965   100 H    0.960
                            99 H    0.960
    30   8 O    2.287 --    31 C    1.091    29 C    0.965    32 O    0.153
    31   6 C    3.898 --    32 O    1.693    30 O    1.091    64 C    1.025
    32   8 O    1.997 --    31 C    1.693    30 O    0.153
    33   6 C    3.896 --    35 O    1.636    34 C    1.083    17 O    1.073
    34   6 C    3.965 --    36 C    1.717    33 C    1.083   101 H    0.954
                            38 C    0.112
    35   8 O    1.992 --    33 C    1.636    17 O    0.141
    36   6 C    3.971 --    34 C    1.717    37 C    1.158   102 H    0.954
    37   6 C    3.986 --    38 C    1.779    36 C    1.158   103 H    0.957
    38   6 C    3.963 --    37 C    1.779    39 C    1.042   104 H    0.958
                            34 C    0.112
    39   6 C    3.984 --    38 C    1.042   105 H    0.967   106 H    0.962
                            40 C    0.934
    40   6 C    3.944 --    41 C    1.008    42 O    0.986   107 H    0.954
                            39 C    0.934
    41   6 C    3.978 --    43 C    1.846    40 C    1.008   108 H    0.962
                            45 C    0.108
    42   8 O    1.933 --    40 C    0.986   109 H    0.866
    43   6 C    3.990 --    41 C    1.846    44 C    1.106   110 H    0.954
    44   6 C    3.988 --    45 C    1.844    43 C    1.106   111 H    0.960
    45   6 C    3.983 --    44 C    1.844    46 C    1.032   112 H    0.956
                            41 C    0.108
    46   6 C    3.996 --    45 C    1.032    47 C    1.003   114 H    0.966
                           113 H    0.948
    47   6 C    3.993 --    48 C    1.008    46 C    1.003   115 H    0.968
                           116 H    0.965
    48   6 C    3.995 --    47 C    1.008    49 C    1.006   118 H    0.977
                           117 H    0.976
    49   6 C    3.996 --    50 C    1.022    48 C    1.006   120 H    0.977
                           119 H    0.969
    50   6 C    3.994 --    49 C    1.022   121 H    0.986   122 H    0.984
                           123 H    0.977
    51   8 O    2.087 --     1 C    1.073   124 H    0.837
    52   8 O    2.091 --     5 C    1.079   125 H    0.850
    53   6 C    3.914 --    27 O    0.984    58 O    0.951    54 C    0.948
                           126 H    0.935
    54   6 C    3.960 --    62 O    1.001    55 C    0.968   127 H    0.953
                            53 C    0.948
    55   6 C    3.964 --    61 O    1.002    56 C    0.969    54 C    0.968
                           128 H    0.956
    56   6 C    3.962 --    60 O    1.000    55 C    0.969    57 C    0.968
                           129 H    0.956
    57   6 C    3.932 --    59 C    0.982    56 C    0.968   130 H    0.951
                            58 O    0.941
    58   8 O    2.074 --    53 C    0.951    57 C    0.941
    59   6 C    3.960 --    63 O    1.017    57 C    0.982   132 H    0.966
                           131 H    0.962
    60   8 O    1.942 --    56 C    1.000   133 H    0.836
    61   8 O    1.934 --    55 C    1.002   134 H    0.849
    62   8 O    1.938 --    54 C    1.001   135 H    0.839
    63   8 O    1.923 --    59 C    1.017   136 H    0.834
    64   6 C    3.977 --    69 C    1.370    65 C    1.367    31 C    1.025
    65   6 C    3.989 --    66 C    1.476    64 C    1.367   137 H    0.963
    66   6 C    3.989 --    65 C    1.476    67 C    1.371   138 H    0.963
    67   6 C    3.984 --    66 C    1.371    68 C    1.369    70 C    1.058
    68   6 C    3.988 --    69 C    1.471    67 C    1.369   139 H    0.963
    69   6 C    3.986 --    68 C    1.471    64 C    1.370   140 H    0.965
    70   6 C    3.986 --    75 C    1.380    71 C    1.377    67 C    1.058
    71   6 C    3.988 --    72 C    1.461    70 C    1.377   141 H    0.966
                            74 C    0.103
    72   6 C    3.990 --    71 C    1.461    73 C    1.402   142 H    0.967
                            75 C    0.103
    73   6 C    3.978 --    72 C    1.402    74 C    1.402    76 C    1.013
    74   6 C    3.990 --    75 C    1.462    73 C    1.402   143 H    0.968
                            71 C    0.103
    75   6 C    3.987 --    74 C    1.462    70 C    1.380   144 H    0.966
                            72 C    0.103
    76   6 C    3.996 --    73 C    1.013    77 C    1.002   145 H    0.973
                           146 H    0.971
    77   6 C    3.991 --    76 C    1.002   149 H    0.987   148 H    0.985
                           147 H    0.983
    78   1 H    0.994 --     4 C    0.963
    79   1 H    0.993 --     6 C    0.960
    80   1 H    0.999 --     7 C    0.951
    81   1 H    0.997 --     8 C    0.957
    82   1 H    0.999 --     9 C    0.945
    83   1 H    0.991 --    10 C    0.950
    84   1 H    0.999 --    11 C    0.954
    85   1 H    0.999 --    13 C    0.950
    86   1 H    0.996 --    13 C    0.967
    87   1 H    0.894 --    14 O    0.846
    88   1 H    0.881 --    15 O    0.824
    89   1 H    0.992 --    18 C    0.960
    90   1 H    0.996 --    18 C    0.963
    91   1 H    0.879 --    19 O    0.864
    92   1 H    1.000 --    20 C    0.941
    93   1 H    0.999 --    22 C    0.952
    94   1 H    0.997 --    23 C    0.956
    95   1 H    0.998 --    24 C    0.950
    96   1 H    0.996 --    25 C    0.954
    97   1 H    0.874 --    26 O    0.823
    98   1 H    0.865 --    28 O    0.840
    99   1 H    0.993 --    29 C    0.960
   100   1 H    0.988 --    29 C    0.960
   101   1 H    0.989 --    34 C    0.954
   102   1 H    0.994 --    36 C    0.954
   103   1 H    0.994 --    37 C    0.957
   104   1 H    0.997 --    38 C    0.958
   105   1 H    0.992 --    39 C    0.967
   106   1 H    0.994 --    39 C    0.962
   107   1 H    0.998 --    40 C    0.954
   108   1 H    0.996 --    41 C    0.962
   109   1 H    0.883 --    42 O    0.866
   110   1 H    0.999 --    43 C    0.954
   111   1 H    0.997 --    44 C    0.960
   112   1 H    0.999 --    45 C    0.956
   113   1 H    0.990 --    46 C    0.948
   114   1 H    0.997 --    46 C    0.966
   115   1 H    1.000 --    47 C    0.968
   116   1 H    0.998 --    47 C    0.965
   117   1 H    0.998 --    48 C    0.976
   118   1 H    0.999 --    48 C    0.977
   119   1 H    0.999 --    49 C    0.969
   120   1 H    0.998 --    49 C    0.977
   121   1 H    0.998 --    50 C    0.986
   122   1 H    0.999 --    50 C    0.984
   123   1 H    0.999 --    50 C    0.977
   124   1 H    0.887 --    51 O    0.837
   125   1 H    0.868 --    52 O    0.850
   126   1 H    0.996 --    53 C    0.935
   127   1 H    0.998 --    54 C    0.953
   128   1 H    0.999 --    55 C    0.956
   129   1 H    0.996 --    56 C    0.956
   130   1 H    0.999 --    57 C    0.951
   131   1 H    0.996 --    59 C    0.962
   132   1 H    0.994 --    59 C    0.966
   133   1 H    0.865 --    60 O    0.836
   134   1 H    0.866 --    61 O    0.849
   135   1 H    0.887 --    62 O    0.839
   136   1 H    0.875 --    63 O    0.834
   137   1 H    0.997 --    65 C    0.963
   138   1 H    0.996 --    66 C    0.963
   139   1 H    0.996 --    68 C    0.963
   140   1 H    0.996 --    69 C    0.965
   141   1 H    0.999 --    71 C    0.966
   142   1 H    0.997 --    72 C    0.967
   143   1 H    0.997 --    74 C    0.968
   144   1 H    0.998 --    75 C    0.966
   145   1 H    0.998 --    76 C    0.973
   146   1 H    0.997 --    76 C    0.971
   147   1 H    0.997 --    77 C    0.983
   148   1 H    0.997 --    77 C    0.985
   149   1 H    0.999 --    77 C    0.987
 ---------------------------------------------------------------------------

Topologies differ in total number of bonds
Writing topology from bond orders to xtbtopo.mol

molecular dipole:
                 x           y           z       tot (Debye)
 q only:       -0.019      -1.614       2.470
   full:        0.275      -1.521       2.716       7.943
molecular quadrupole (traceless):
                xx          xy          yy          xz          yz          zz
 q only:       48.330      23.923     -29.337      43.524       0.903     -18.993
  q+dip:       26.517      23.472     -12.609      55.643      -4.984     -13.909
   full:       25.802      26.243     -18.249      56.188      -3.110      -7.554


           -------------------------------------------------
          | TOTAL ENERGY             -242.104814971589 Eh   |
          | GRADIENT NORM               0.117632157135 Eh/α |
          | HOMO-LUMO GAP               1.791833830933 eV   |
           -------------------------------------------------

------------------------------------------------------------------------
 * finished run on 2026/06/19 at 18:52:47.789     
------------------------------------------------------------------------
 total:
 * wall-time:     0 d,  0 h,  0 min,  0.324 sec
 *  cpu-time:     0 d,  0 h,  0 min,  4.990 sec
 * ratio c/w:    15.422 speedup
 SCF:
 * wall-time:     0 d,  0 h,  0 min,  0.277 sec
 *  cpu-time:     0 d,  0 h,  0 min,  4.367 sec
 * ratio c/w:    15.777 speedup

normal termination of xtb
