      -----------------------------------------------------------      
     |                   =====================                   |     
     |                           x T B                           |     
     |                   =====================                   |     
     |                         S. Grimme                         |     
     |          Mulliken Center for Theoretical Chemistry        |     
     |                    University of Bonn                     |     
      -----------------------------------------------------------      

   * xtb version 6.7.1 (edcfbbe) compiled by 'albert@albert-system' on 2024-07-22

   xtb is free software: you can redistribute it and/or modify it under
   the terms of the GNU Lesser General Public License as published by
   the Free Software Foundation, either version 3 of the License, or
   (at your option) any later version.
   
   xtb is distributed in the hope that it will be useful,
   but WITHOUT ANY WARRANTY; without even the implied warranty of
   MERCHANTABILITY or FITNESS FOR A PARTICULAR PURPOSE.  See the
   GNU Lesser General Public License for more details.
   
   Cite this work as:
   * C. Bannwarth, E. Caldeweyher, S. Ehlert, A. Hansen, P. Pracht,
     J. Seibert, S. Spicher, S. Grimme, WIREs Comput. Mol. Sci., 2020, 11,
     e01493. DOI: 10.1002/wcms.1493
   
   for GFN2-xTB:
   * C. Bannwarth, S. Ehlert and S. Grimme., J. Chem. Theory Comput., 2019,
     15, 1652-1671. DOI: 10.1021/acs.jctc.8b01176
   for GFN1-xTB:
   * S. Grimme, C. Bannwarth, P. Shushkov, J. Chem. Theory Comput., 2017,
     13, 1989-2009. DOI: 10.1021/acs.jctc.7b00118
   for GFN0-xTB:
   * P. Pracht, E. Caldeweyher, S. Ehlert, S. Grimme, ChemRxiv, 2019, preprint.
     DOI: 10.26434/chemrxiv.8326202.v1
   for GFN-FF:
   * S. Spicher and S. Grimme, Angew. Chem. Int. Ed., 2020, 59, 15665-15673.
     DOI: 10.1002/anie.202004239
   
   for ALPB and GBSA implicit solvation:
   * S. Ehlert, M. Stahn, S. Spicher, S. Grimme, J. Chem. Theory Comput.,
     2021, 17, 4250-4261. DOI: 10.1021/acs.jctc.1c00471
   
   for ddCOSMO and CPCM-X implicit solvation:
   * M. Stahn, S. Ehlert, S. Grimme, J. Phys. Chem. A,
     2023, XX, XXXX-XXXX. DOI: 10.1021/acs.jpca.3c04382
   
   for DFT-D4:
   * E. Caldeweyher, C. Bannwarth and S. Grimme, J. Chem. Phys., 2017,
     147, 034112. DOI: 10.1063/1.4993215
   * E. Caldeweyher, S. Ehlert, A. Hansen, H. Neugebauer, S. Spicher,
     C. Bannwarth and S. Grimme, J. Chem. Phys., 2019, 150, 154122.
     DOI: 10.1063/1.5090222
   * E. Caldeweyher, J.-M. Mewes, S. Ehlert and S. Grimme, Phys. Chem. Chem. Phys.
     2020, 22, 8499-8512. DOI: 10.1039/D0CP00502A
   
   for sTDA-xTB:
   * S. Grimme and C. Bannwarth, J. Chem. Phys., 2016, 145, 054103.
     DOI: 10.1063/1.4959605
   
   in the mass-spec context:
   * V. Asgeirsson, C. Bauer and S. Grimme, Chem. Sci., 2017, 8, 4879.
     DOI: 10.1039/c7sc00601b
   * J. Koopman and S. Grimme, ACS Omega 2019, 4, 12, 15120-15133.
     DOI: 10.1021/acsomega.9b02011
   
   for metadynamics refer to:
   * S. Grimme, J. Chem. Theory Comput., 2019, 155, 2847-2862
     DOI: 10.1021/acs.jctc.9b00143
   
   for SPH calculations refer to:
   * S. Spicher and S. Grimme, J. Chem. Theory Comput., 2021, 17, 1701-1714
     DOI: 10.1021/acs.jctc.0c01306
   
   for ONIOM refer to:
   * C. Plett, A. Katbashev, S. Ehlert, S. Grimme, M. Bursch,
     Phys. Chem. Chem. Phys., 2023, 25, 17860-17868. DOI: 10.1039/D3CP02178E
   
   for DIPRO refer to:
   * J. Kohn, N. Gildemeister, S. Grimme, D. Fazzi, A. Hansen,
     J. Chem. Phys., 2023, just accepted.
   
   for PTB refer to:
   * S. Grimme, M. Mueller, A. Hansen, J. Chem. Phys., 2023, 158, 124111.
     DOI: 10.1063/5.0137838
   
   with help from (in alphabetical order)
   P. Atkinson, C. Bannwarth, F. Bohle, G. Brandenburg, E. Caldeweyher
   M. Checinski, S. Dohm, S. Ehlert, S. Ehrlich, I. Gerasimov, C. Hölzer
   A. Katbashev, J. Kohn, J. Koopman, C. Lavigne, S. Lehtola, F. März, M. Müller,
   F. Musil, H. Neugebauer, J. Pisarek, C. Plett, P. Pracht, F. Pultar,
   J. Seibert, P. Shushkov, S. Spicher, M. Stahn, M. Steiner, T. Strunk,
   J. Stückrath, T. Rose, and J. Unsleber
   
 * started run on 2026/06/19 at 18:52:48.505     
   ID    Z sym.   atoms
    1    6 C      1-11, 13, 18, 20, 22-25, 29, 31, 33, 34, 36-41, 43-50,
                  53-57, 59, 64-77
    2    8 O      12, 14-17, 19, 21, 26-28, 30, 32, 35, 42, 51, 52, 58, 60-63
    3    1 H      78-149

           -------------------------------------------------
          |                Calculation Setup                |
           -------------------------------------------------

          program call               : xtb PAPU-0083/conf05.xyz --gfn 2 --alpb water --chrg 0 --uhf 0 --namespace PAPU-0083/conf05_water
          hostname                   : cpu10
          calculation namespace      : PAPU-0083/conf05_water
          coordinate file            : PAPU-0083/conf05.xyz
          omp threads                :                    16


           -------------------------------------------------
          |                 G F N 2 - x T B                 |
           -------------------------------------------------

        Reference                      10.1021/acs.jctc.8b01176
      * Hamiltonian:
        H0-scaling (s, p, d)           1.850000    2.230000    2.230000
        zeta-weighting                 0.500000
      * Dispersion:
        s8                             2.700000
        a1                             0.520000
        a2                             5.000000
        s9                             5.000000
      * Repulsion:
        kExp                           1.500000    1.000000
        rExp                           1.000000
      * Coulomb:
        alpha                          2.000000
        third order                    shell-resolved
        anisotropic                    true
        a3                             3.000000
        a5                             4.000000
        cn-shift                       1.200000
        cn-exp                         4.000000
        max-rad                        5.000000

      * Solvation model:               ALPB
        Solvent                        water
        Parameter file                 internal GFN2-xTB/ALPB
        Dielectric constant                8.0200E+01
        Reference state                gsolv [1 M gas/solution]
        Free energy shift                  1.0808E-03 Eh       6.7819E-01 kcal/mol
        Temperature                        2.9815E+02 K
        Density                            1.0000E+00 kg/L
        Solvent mass                       1.8000E+01 g/mol
        Interaction kernel             P16
        Born radius scaling (c1)           1.4744E+00
        Born radii integrator          GBOBC
        Born offset                        0.0000E+00 a0       0.0000E+00 AA
        H-bond correction              true
        Ion screening                  false
        Surface tension                    1.0000E-05 Eh       1.5569E+01 dyn/cm
        Grid points                               230 per atom

          ...................................................
          :                      SETUP                      :
          :.................................................:
          :  # basis functions                 380          :
          :  # atomic orbitals                 380          :
          :  # shells                          226          :
          :  # electrons                       422          :
          :  max. iterations                   250          :
          :  Hamiltonian                  GFN2-xTB          :
          :  restarted?                      false          :
          :  GBSA solvation                   true          :
          :  PC potential                    false          :
          :  electronic temp.          300.0000000     K    :
          :  accuracy                    1.0000000          :
          :  -> integral cutoff          0.2500000E+02      :
          :  -> integral neglect         0.1000000E-07      :
          :  -> SCF convergence          0.1000000E-05 Eh   :
          :  -> wf. convergence          0.1000000E-03 e    :
          :  Broyden damping             0.4000000          :
          :  net charge                          0          :
          :  unpaired electrons                  0          :
          ...................................................

 iter      E             dE          RMSdq      gap      omega  full diag
   1   -244.5143328 -0.244514E+03  0.443E+00    2.52       0.0  T
   2   -244.7578957 -0.243563E+00  0.243E+00    1.98       1.0  T
   3   -244.7383975  0.194981E-01  0.103E+00    2.03       1.0  T
   4   -244.7781096 -0.397121E-01  0.345E-01    1.78       1.0  T
   5   -244.7860623 -0.795263E-02  0.141E-01    1.80       1.0  T
   6   -244.7869538 -0.891526E-03  0.710E-02    1.80       1.0  T
   7   -244.7871068 -0.153022E-03  0.337E-02    1.82       1.0  T
   8   -244.7871512 -0.443941E-04  0.158E-02    1.82       1.0  T
   9   -244.7871609 -0.970108E-05  0.850E-03    1.82       1.0  T
  10   -244.7871637 -0.281291E-05  0.500E-03    1.82       1.6  T
  11   -244.7871650 -0.123596E-05  0.249E-03    1.82       3.3  T
  12   -244.7871652 -0.261109E-06  0.940E-04    1.82       8.7  T
  13   -244.7871653 -0.361620E-07  0.465E-04    1.82      17.6  T

   *** convergence criteria satisfied after 13 iterations ***

         #    Occupation            Energy/Eh            Energy/eV
      -------------------------------------------------------------
         1        2.0000           -0.7755671             -21.1043
       ...           ...                  ...                  ...
       205        2.0000           -0.4099895             -11.1564
       206        2.0000           -0.4052333             -11.0270
       207        2.0000           -0.4033975             -10.9770
       208        2.0000           -0.4003600             -10.8944
       209        2.0000           -0.3867332             -10.5235
       210        2.0000           -0.3852013             -10.4819
       211        2.0000           -0.3795792             -10.3289 (HOMO)
       212                         -0.3126837              -8.5086 (LUMO)
       213                         -0.2906784              -7.9098
       214                         -0.2457515              -6.6872
       215                         -0.2375149              -6.4631
       216                         -0.2350525              -6.3961
       ...                                ...                  ...
       380                          0.6896355              18.7659
      -------------------------------------------------------------
                  HL-Gap            0.0668955 Eh            1.8203 eV
             Fermi-level           -0.3461314 Eh           -9.4187 eV

 SCC (total)                   0 d,  0 h,  0 min,  0.271 sec
 SCC setup                      ...        0 min,  0.004 sec (  1.320%)
 Dispersion                     ...        0 min,  0.005 sec (  1.750%)
 classical contributions        ...        0 min,  0.000 sec (  0.077%)
 integral evaluation            ...        0 min,  0.015 sec (  5.600%)
 iterations                     ...        0 min,  0.206 sec ( 76.097%)
 molecular gradient             ...        0 min,  0.040 sec ( 14.841%)
 printout                       ...        0 min,  0.001 sec (  0.300%)

         :::::::::::::::::::::::::::::::::::::::::::::::::::::
         ::                     SUMMARY                     ::
         :::::::::::::::::::::::::::::::::::::::::::::::::::::
         :: total energy            -242.076284636089 Eh    ::
         :: total w/o Gsasa/hb      -242.046124477565 Eh    ::
         :: gradient norm              0.119142436643 Eh/a0 ::
         :: HOMO-LUMO gap              1.820319138771 eV    ::
         ::.................................................::
         :: SCC energy              -244.772044259786 Eh    ::
         :: -> isotropic ES            0.543453730150 Eh    ::
         :: -> anisotropic ES         -0.022888157193 Eh    ::
         :: -> anisotropic XC          0.026534928361 Eh    ::
         :: -> dispersion             -0.204556367151 Eh    ::
         :: -> Gsolv                  -0.080890611135 Eh    ::
         ::    -> Gelec               -0.050730452611 Eh    ::
         ::    -> Gsasa                0.008079218446 Eh    ::
         ::    -> Ghb                 -0.039320136668 Eh    ::
         ::    -> Gshift               0.001080759698 Eh    ::
         :: repulsion energy           2.695759623697 Eh    ::
         :: add. restraining           0.000000000000 Eh    ::
         :: total charge               0.000000000000 e     ::
         :::::::::::::::::::::::::::::::::::::::::::::::::::::

           -------------------------------------------------
          |                Property Printout                |
           -------------------------------------------------

    * Orbital Energies and Occupations

         #    Occupation            Energy/Eh            Energy/eV
      -------------------------------------------------------------
         1        2.0000           -0.7755671             -21.1043
       ...           ...                  ...                  ...
       199        2.0000           -0.4186479             -11.3920
       200        2.0000           -0.4176744             -11.3655
       201        2.0000           -0.4169683             -11.3463
       202        2.0000           -0.4143232             -11.2743
       203        2.0000           -0.4122465             -11.2178
       204        2.0000           -0.4115475             -11.1988
       205        2.0000           -0.4099895             -11.1564
       206        2.0000           -0.4052333             -11.0270
       207        2.0000           -0.4033975             -10.9770
       208        2.0000           -0.4003600             -10.8944
       209        2.0000           -0.3867332             -10.5235
       210        2.0000           -0.3852013             -10.4819
       211        2.0000           -0.3795792             -10.3289 (HOMO)
       212                         -0.3126837              -8.5086 (LUMO)
       213                         -0.2906784              -7.9098
       214                         -0.2457515              -6.6872
       215                         -0.2375149              -6.4631
       216                         -0.2350525              -6.3961
       217                         -0.2323821              -6.3234
       218                         -0.2295946              -6.2476
       219                         -0.2259013              -6.1471
       220                         -0.2190614              -5.9610
       221                         -0.1878545              -5.1118
       222                         -0.1605980              -4.3701
       ...                                ...                  ...
       380                          0.6896355              18.7659
      -------------------------------------------------------------
                  HL-Gap            0.0668955 Eh            1.8203 eV
             Fermi-level           -0.3461314 Eh           -9.4187 eV

     #   Z          covCN         q      C6AA      α(0)
     1   6 C        2.842     0.141    24.920     8.181
     2   6 C        2.969    -0.048    29.182     8.861
     3   6 C        2.964    -0.003    28.099     8.695
     4   6 C        2.929    -0.069    29.711     8.939
     5   6 C        2.837     0.148    24.778     8.157
     6   6 C        2.919    -0.098    30.475     9.053
     7   6 C        3.735     0.105    18.927     6.209
     8   6 C        3.721     0.097    19.080     6.238
     9   6 C        3.764     0.106    18.872     6.192
    10   6 C        3.751     0.093    19.104     6.233
    11   6 C        3.733     0.101    18.995     6.220
    12   8 O        1.692    -0.349    19.878     6.019
    13   6 C        3.683     0.083    19.401     6.307
    14   8 O        1.652    -0.494    22.756     6.440
    15   8 O        1.651    -0.489    22.655     6.425
    16   8 O        1.699    -0.314    19.233     5.921
    17   8 O        1.701    -0.290    18.829     5.858
    18   6 C        3.676     0.075    19.547     6.335
    19   8 O        1.654    -0.485    22.569     6.413
    20   6 C        3.641     0.248    17.085     5.944
    21   8 O        1.696    -0.357    20.022     6.041
    22   6 C        3.742     0.113    18.806     6.187
    23   6 C        3.722     0.092    19.160     6.251
    24   6 C        3.722     0.096    19.106     6.243
    25   6 C        3.745     0.095    19.078     6.231
    26   8 O        1.652    -0.475    22.361     6.383
    27   8 O        1.698    -0.337    19.652     5.985
    28   8 O        1.653    -0.494    22.758     6.440
    29   6 C        3.732     0.070    19.493     6.302
    30   8 O        1.704    -0.269    18.462     5.801
    31   6 C        2.752     0.346    21.128     7.527
    32   8 O        0.857    -0.469    23.113     6.446
    33   6 C        2.732     0.355    20.973     7.498
    34   6 C        2.898    -0.077    29.921     8.969
    35   8 O        0.859    -0.476    23.257     6.466
    36   6 C        2.899    -0.005    28.156     8.700
    37   6 C        2.900    -0.037    28.916     8.817
    38   6 C        2.894    -0.017    28.440     8.744
    39   6 C        3.806    -0.075    21.921     6.665
    40   6 C        3.727     0.126    18.625     6.162
    41   6 C        2.894    -0.069    29.720     8.938
    42   8 O        1.652    -0.518    23.286     6.514
    43   6 C        2.899    -0.038    28.939     8.820
    44   6 C        2.897    -0.052    29.280     8.872
    45   6 C        2.896    -0.044    29.090     8.843
    46   6 C        3.805    -0.064    21.723     6.635
    47   6 C        3.801    -0.051    21.497     6.601
    48   6 C        3.799    -0.061    21.666     6.627
    49   6 C        3.798    -0.046    21.402     6.587
    50   6 C        3.750    -0.111    22.679     6.792
    51   8 O        1.656    -0.433    21.504     6.260
    52   8 O        1.657    -0.442    21.672     6.284
    53   6 C        3.639     0.233    17.299     5.982
    54   6 C        3.721     0.086    19.267     6.269
    55   6 C        3.724     0.101    19.024     6.228
    56   6 C        3.722     0.095    19.122     6.245
    57   6 C        3.739     0.101    19.000     6.220
    58   8 O        1.695    -0.360    20.070     6.048
    59   6 C        3.674     0.070    19.624     6.348
    60   8 O        1.653    -0.494    22.756     6.440
    61   8 O        1.654    -0.496    22.801     6.446
    62   8 O        1.651    -0.475    22.364     6.384
    63   8 O        1.654    -0.499    22.861     6.455
    64   6 C        2.974    -0.029    28.720     8.791
    65   6 C        2.926    -0.025    28.638     8.776
    66   6 C        2.926    -0.034    28.842     8.807
    67   6 C        2.976     0.023    27.482     8.599
    68   6 C        2.926    -0.034    28.838     8.807
    69   6 C        2.924    -0.020    28.507     8.756
    70   6 C        2.975     0.001    28.004     8.680
    71   6 C        2.926    -0.036    28.906     8.817
    72   6 C        2.925    -0.039    28.961     8.825
    73   6 C        2.972     0.018    27.595     8.617
    74   6 C        2.925    -0.042    29.035     8.837
    75   6 C        2.925    -0.038    28.947     8.823
    76   6 C        3.806    -0.062    21.686     6.629
    77   6 C        3.752    -0.108    22.627     6.783
    78   1 H        0.926     0.065     2.146     2.291
    79   1 H        0.926     0.078     2.003     2.213
    80   1 H        0.924     0.031     2.575     2.510
    81   1 H        0.923     0.064     2.157     2.297
    82   1 H        0.924     0.035     2.520     2.483
    83   1 H        0.923     0.100     1.787     2.090
    84   1 H        0.923     0.022     2.710     2.575
    85   1 H        0.924     0.016     2.795     2.615
    86   1 H        0.924     0.051     2.310     2.377
    87   1 H        0.802     0.327     0.646     1.263
    88   1 H        0.803     0.342     0.608     1.225
    89   1 H        0.924     0.077     2.006     2.215
    90   1 H        0.924     0.052     2.301     2.372
    91   1 H        0.803     0.360     0.566     1.181
    92   1 H        0.924     0.003     3.010     2.713
    93   1 H        0.923     0.030     2.589     2.516
    94   1 H        0.923     0.050     2.318     2.381
    95   1 H        0.924     0.049     2.335     2.390
    96   1 H        0.924     0.072     2.059     2.244
    97   1 H        0.802     0.344     0.603     1.220
    98   1 H        0.803     0.377     0.529     1.143
    99   1 H        0.924     0.080     1.984     2.203
   100   1 H        0.924     0.106     1.730     2.057
   101   1 H        0.926     0.089     1.888     2.148
   102   1 H        0.926     0.092     1.860     2.133
   103   1 H        0.926     0.069     2.096     2.264
   104   1 H        0.926     0.059     2.212     2.326
   105   1 H        0.924     0.075     2.029     2.228
   106   1 H        0.924     0.074     2.042     2.235
   107   1 H        0.923     0.018     2.769     2.602
   108   1 H        0.926     0.058     2.218     2.329
   109   1 H        0.804     0.360     0.565     1.180
   110   1 H        0.926     0.030     2.592     2.518
   111   1 H        0.926     0.046     2.365     2.405
   112   1 H        0.926     0.037     2.488     2.467
   113   1 H        0.924     0.048     2.341     2.393
   114   1 H        0.924     0.050     2.318     2.381
   115   1 H        0.924    -0.005     3.140     2.771
   116   1 H        0.924     0.045     2.389     2.417
   117   1 H        0.924     0.038     2.473     2.459
   118   1 H        0.924     0.026     2.648     2.545
   119   1 H        0.924     0.012     2.866     2.648
   120   1 H        0.923     0.028     2.608     2.526
   121   1 H        0.924     0.035     2.516     2.481
   122   1 H        0.924     0.036     2.503     2.474
   123   1 H        0.925     0.045     2.388     2.416
   124   1 H        0.803     0.343     0.604     1.221
   125   1 H        0.804     0.378     0.527     1.141
   126   1 H        0.924     0.058     2.218     2.329
   127   1 H        0.924     0.048     2.343     2.394
   128   1 H        0.923     0.040     2.448     2.447
   129   1 H        0.923     0.057     2.236     2.338
   130   1 H        0.923     0.041     2.439     2.442
   131   1 H        0.924     0.058     2.226     2.333
   132   1 H        0.924     0.069     2.092     2.262
   133   1 H        0.803     0.375     0.534     1.148
   134   1 H        0.804     0.375     0.534     1.147
   135   1 H        0.802     0.329     0.641     1.258
   136   1 H        0.803     0.358     0.570     1.186
   137   1 H        0.926     0.054     2.275     2.358
   138   1 H        0.926     0.064     2.151     2.294
   139   1 H        0.926     0.061     2.190     2.314
   140   1 H        0.926     0.054     2.271     2.357
   141   1 H        0.926     0.035     2.522     2.483
   142   1 H        0.926     0.044     2.401     2.423
   143   1 H        0.926     0.043     2.404     2.424
   144   1 H        0.926     0.042     2.426     2.435
   145   1 H        0.924     0.040     2.453     2.449
   146   1 H        0.924     0.043     2.415     2.430
   147   1 H        0.924     0.052     2.292     2.368
   148   1 H        0.924     0.042     2.426     2.436
   149   1 H        0.924     0.033     2.543     2.494

 Mol. C6AA /au·bohr⁶  :     220437.365610
 Mol. C8AA /au·bohr⁸  :    5053574.098635
 Mol. α(0) /au        :        709.715656


Wiberg/Mayer (AO) data.
largest (>0.10) Wiberg bond orders for each atom

 ---------------------------------------------------------------------------
     #   Z sym  total        # sym  WBO       # sym  WBO       # sym  WBO
 ---------------------------------------------------------------------------
     1   6 C    3.945 --     6 C    1.390     2 C    1.334    51 O    1.076
     2   6 C    3.968 --     3 C    1.386     1 C    1.334     7 C    0.991
     3   6 C    3.987 --     4 C    1.430     2 C    1.386    13 C    1.000
     4   6 C    3.984 --     3 C    1.430     5 C    1.360    78 H    0.965
     5   6 C    3.946 --     6 C    1.380     4 C    1.360    52 O    1.079
     6   6 C    3.977 --     1 C    1.390     5 C    1.380    79 H    0.960
     7   6 C    3.937 --     2 C    0.991    80 H    0.951     8 C    0.947
                            12 O    0.945
     8   6 C    3.952 --    15 O    0.991     9 C    0.967    81 H    0.957
                             7 C    0.947
     9   6 C    3.932 --    10 C    0.968     8 C    0.967    82 H    0.943
                            17 O    0.941
    10   6 C    3.934 --     9 C    0.968    16 O    0.966    11 C    0.961
                            83 H    0.948
    11   6 C    3.946 --    18 C    0.979    10 C    0.961    12 O    0.961
                            84 H    0.955
    12   8 O    2.075 --    11 C    0.961     7 C    0.945
    13   6 C    3.958 --     3 C    1.000    14 O    0.989    86 H    0.968
                            85 H    0.950
    14   8 O    1.926 --    13 C    0.989    87 H    0.845
    15   8 O    1.955 --     8 C    0.991    88 H    0.828
    16   8 O    2.112 --    20 C    0.987    10 C    0.966
    17   8 O    2.270 --    33 C    1.073     9 C    0.941    35 O    0.139
    18   6 C    3.955 --    19 O    1.014    11 C    0.979    90 H    0.963
                            89 H    0.961
    19   8 O    1.929 --    18 C    1.014    91 H    0.855
    20   6 C    3.930 --    16 O    0.987    21 O    0.956    25 C    0.956
                            92 H    0.938
    21   8 O    2.056 --    20 C    0.956    22 C    0.952
    22   6 C    3.940 --    29 C    0.983    23 C    0.968    21 O    0.952
                            93 H    0.952
    23   6 C    3.966 --    28 O    1.008    22 C    0.968    24 C    0.964
                            94 H    0.957
    24   6 C    3.962 --    26 O    1.000    25 C    0.968    23 C    0.964
                            95 H    0.950
    25   6 C    3.940 --    24 C    0.968    27 O    0.958    20 C    0.956
                            96 H    0.953
    26   8 O    1.938 --    24 C    1.000    97 H    0.837
    27   8 O    2.099 --    53 C    0.981    25 C    0.958
    28   8 O    1.915 --    23 C    1.008    98 H    0.833
    29   6 C    3.925 --    22 C    0.983   100 H    0.961    30 O    0.961
                            99 H    0.961
    30   8 O    2.288 --    31 C    1.097    29 C    0.961    32 O    0.153
    31   6 C    3.897 --    32 O    1.681    30 O    1.097    64 C    1.027
    32   8 O    1.985 --    31 C    1.681    30 O    0.153
    33   6 C    3.897 --    35 O    1.625    34 C    1.091    17 O    1.073
    34   6 C    3.968 --    36 C    1.709    33 C    1.091   101 H    0.957
                            38 C    0.111
    35   8 O    1.978 --    33 C    1.625    17 O    0.139
    36   6 C    3.970 --    34 C    1.709    37 C    1.160   102 H    0.944
    37   6 C    3.987 --    38 C    1.778    36 C    1.160   103 H    0.958
    38   6 C    3.961 --    37 C    1.778    39 C    1.041   104 H    0.959
                            34 C    0.111
    39   6 C    3.983 --    38 C    1.041   105 H    0.965   106 H    0.963
                            40 C    0.943
    40   6 C    3.946 --    41 C    1.009    42 O    0.977   107 H    0.957
                            39 C    0.943
    41   6 C    3.979 --    43 C    1.846    40 C    1.009   108 H    0.963
                            45 C    0.108
    42   8 O    1.901 --    40 C    0.977   109 H    0.855
    43   6 C    3.990 --    41 C    1.846    44 C    1.106   110 H    0.956
    44   6 C    3.989 --    45 C    1.845    43 C    1.106   111 H    0.960
    45   6 C    3.982 --    44 C    1.845    46 C    1.031   112 H    0.952
                            41 C    0.108
    46   6 C    3.996 --    45 C    1.031    47 C    1.002   114 H    0.967
                           113 H    0.949
    47   6 C    3.993 --    48 C    1.008    46 C    1.002   115 H    0.968
                           116 H    0.967
    48   6 C    3.996 --    47 C    1.008    49 C    1.006   118 H    0.977
                           117 H    0.977
    49   6 C    3.996 --    50 C    1.021    48 C    1.006   120 H    0.977
                           119 H    0.971
    50   6 C    3.994 --    49 C    1.021   121 H    0.987   122 H    0.984
                           123 H    0.978
    51   8 O    2.086 --     1 C    1.076   124 H    0.832
    52   8 O    2.082 --     5 C    1.079   125 H    0.838
    53   6 C    3.909 --    27 O    0.981    58 O    0.951    54 C    0.949
                           126 H    0.937
    54   6 C    3.956 --    62 O    0.997    55 C    0.968   127 H    0.952
                            53 C    0.949
    55   6 C    3.962 --    61 O    1.000    56 C    0.970    54 C    0.968
                           128 H    0.958
    56   6 C    3.961 --    60 O    0.998    55 C    0.970    57 C    0.969
                           129 H    0.956
    57   6 C    3.934 --    59 C    0.984    56 C    0.969   130 H    0.955
                            58 O    0.944
    58   8 O    2.068 --    53 C    0.951    57 C    0.944
    59   6 C    3.959 --    63 O    1.012    57 C    0.984   132 H    0.967
                           131 H    0.962
    60   8 O    1.936 --    56 C    0.998   133 H    0.831
    61   8 O    1.924 --    55 C    1.000   134 H    0.842
    62   8 O    1.946 --    54 C    0.997   135 H    0.845
    63   8 O    1.914 --    59 C    1.012   136 H    0.831
    64   6 C    3.976 --    69 C    1.369    65 C    1.365    31 C    1.027
    65   6 C    3.988 --    66 C    1.476    64 C    1.365   137 H    0.962
    66   6 C    3.988 --    65 C    1.476    67 C    1.371   138 H    0.963
    67   6 C    3.984 --    66 C    1.371    68 C    1.368    70 C    1.058
    68   6 C    3.988 --    69 C    1.472    67 C    1.368   139 H    0.963
    69   6 C    3.988 --    68 C    1.472    64 C    1.369   140 H    0.966
    70   6 C    3.986 --    75 C    1.379    71 C    1.378    67 C    1.058
    71   6 C    3.988 --    72 C    1.461    70 C    1.378   141 H    0.966
                            74 C    0.104
    72   6 C    3.990 --    71 C    1.461    73 C    1.403   142 H    0.967
                            75 C    0.104
    73   6 C    3.978 --    72 C    1.403    74 C    1.402    76 C    1.013
    74   6 C    3.990 --    75 C    1.462    73 C    1.402   143 H    0.968
                            71 C    0.104
    75   6 C    3.988 --    74 C    1.462    70 C    1.379   144 H    0.967
                            72 C    0.104
    76   6 C    3.996 --    73 C    1.013    77 C    1.002   145 H    0.972
                           146 H    0.972
    77   6 C    3.991 --    76 C    1.002   149 H    0.988   148 H    0.985
                           147 H    0.981
    78   1 H    0.995 --     4 C    0.965
    79   1 H    0.993 --     6 C    0.960
    80   1 H    0.999 --     7 C    0.951
    81   1 H    0.996 --     8 C    0.957
    82   1 H    0.999 --     9 C    0.943
    83   1 H    0.989 --    10 C    0.948
    84   1 H    0.999 --    11 C    0.955
    85   1 H    0.999 --    13 C    0.950
    86   1 H    0.997 --    13 C    0.968
    87   1 H    0.893 --    14 O    0.845
    88   1 H    0.883 --    15 O    0.828
    89   1 H    0.993 --    18 C    0.961
    90   1 H    0.997 --    18 C    0.963
    91   1 H    0.870 --    19 O    0.855
    92   1 H    1.000 --    20 C    0.938
    93   1 H    0.999 --    22 C    0.952
    94   1 H    0.997 --    23 C    0.957
    95   1 H    0.998 --    24 C    0.950
    96   1 H    0.994 --    25 C    0.953
    97   1 H    0.882 --    26 O    0.837
    98   1 H    0.858 --    28 O    0.833
    99   1 H    0.993 --    29 C    0.961
   100   1 H    0.988 --    29 C    0.961
   101   1 H    0.992 --    34 C    0.957
   102   1 H    0.992 --    36 C    0.944
   103   1 H    0.995 --    37 C    0.958
   104   1 H    0.997 --    38 C    0.959
   105   1 H    0.991 --    39 C    0.965
   106   1 H    0.993 --    39 C    0.963
   107   1 H    0.999 --    40 C    0.957
   108   1 H    0.996 --    41 C    0.963
   109   1 H    0.870 --    42 O    0.855
   110   1 H    0.999 --    43 C    0.956
   111   1 H    0.997 --    44 C    0.960
   112   1 H    0.999 --    45 C    0.952
   113   1 H    0.991 --    46 C    0.949
   114   1 H    0.997 --    46 C    0.967
   115   1 H    1.000 --    47 C    0.968
   116   1 H    0.998 --    47 C    0.967
   117   1 H    0.998 --    48 C    0.977
   118   1 H    0.999 --    48 C    0.977
   119   1 H    1.000 --    49 C    0.971
   120   1 H    0.999 --    49 C    0.977
   121   1 H    0.998 --    50 C    0.987
   122   1 H    0.999 --    50 C    0.984
   123   1 H    0.998 --    50 C    0.978
   124   1 H    0.882 --    51 O    0.832
   125   1 H    0.857 --    52 O    0.838
   126   1 H    0.996 --    53 C    0.937
   127   1 H    0.997 --    54 C    0.952
   128   1 H    0.998 --    55 C    0.958
   129   1 H    0.996 --    56 C    0.956
   130   1 H    0.998 --    57 C    0.955
   131   1 H    0.996 --    59 C    0.962
   132   1 H    0.995 --    59 C    0.967
   133   1 H    0.860 --    60 O    0.831
   134   1 H    0.859 --    61 O    0.842
   135   1 H    0.892 --    62 O    0.845
   136   1 H    0.872 --    63 O    0.831
   137   1 H    0.997 --    65 C    0.962
   138   1 H    0.995 --    66 C    0.963
   139   1 H    0.996 --    68 C    0.963
   140   1 H    0.997 --    69 C    0.966
   141   1 H    0.999 --    71 C    0.966
   142   1 H    0.997 --    72 C    0.967
   143   1 H    0.998 --    74 C    0.968
   144   1 H    0.998 --    75 C    0.967
   145   1 H    0.998 --    76 C    0.972
   146   1 H    0.998 --    76 C    0.972
   147   1 H    0.997 --    77 C    0.981
   148   1 H    0.997 --    77 C    0.985
   149   1 H    0.999 --    77 C    0.988
 ---------------------------------------------------------------------------

Topologies differ in total number of bonds
Writing topology from bond orders to xtbtopo.mol

molecular dipole:
                 x           y           z       tot (Debye)
 q only:        0.346      -2.295       2.125
   full:        0.603      -1.926       2.058       7.326
molecular quadrupole (traceless):
                xx          xy          yy          xz          yz          zz
 q only:       59.865      28.876     -28.329      26.146     -10.556     -31.536
  q+dip:       44.981      28.113     -12.145      32.825     -19.177     -32.836
   full:       44.212      30.573     -18.379      33.474     -17.480     -25.833


           -------------------------------------------------
          | TOTAL ENERGY             -242.076284636089 Eh   |
          | GRADIENT NORM               0.119142436643 Eh/α |
          | HOMO-LUMO GAP               1.820319138771 eV   |
           -------------------------------------------------

------------------------------------------------------------------------
 * finished run on 2026/06/19 at 18:52:48.853     
------------------------------------------------------------------------
 total:
 * wall-time:     0 d,  0 h,  0 min,  0.348 sec
 *  cpu-time:     0 d,  0 h,  0 min,  5.032 sec
 * ratio c/w:    14.476 speedup
 SCF:
 * wall-time:     0 d,  0 h,  0 min,  0.272 sec
 *  cpu-time:     0 d,  0 h,  0 min,  4.301 sec
 * ratio c/w:    15.837 speedup

normal termination of xtb
