      -----------------------------------------------------------      
     |                   =====================                   |     
     |                           x T B                           |     
     |                   =====================                   |     
     |                         S. Grimme                         |     
     |          Mulliken Center for Theoretical Chemistry        |     
     |                    University of Bonn                     |     
      -----------------------------------------------------------      

   * xtb version 6.7.1 (edcfbbe) compiled by 'albert@albert-system' on 2024-07-22

   xtb is free software: you can redistribute it and/or modify it under
   the terms of the GNU Lesser General Public License as published by
   the Free Software Foundation, either version 3 of the License, or
   (at your option) any later version.
   
   xtb is distributed in the hope that it will be useful,
   but WITHOUT ANY WARRANTY; without even the implied warranty of
   MERCHANTABILITY or FITNESS FOR A PARTICULAR PURPOSE.  See the
   GNU Lesser General Public License for more details.
   
   Cite this work as:
   * C. Bannwarth, E. Caldeweyher, S. Ehlert, A. Hansen, P. Pracht,
     J. Seibert, S. Spicher, S. Grimme, WIREs Comput. Mol. Sci., 2020, 11,
     e01493. DOI: 10.1002/wcms.1493
   
   for GFN2-xTB:
   * C. Bannwarth, S. Ehlert and S. Grimme., J. Chem. Theory Comput., 2019,
     15, 1652-1671. DOI: 10.1021/acs.jctc.8b01176
   for GFN1-xTB:
   * S. Grimme, C. Bannwarth, P. Shushkov, J. Chem. Theory Comput., 2017,
     13, 1989-2009. DOI: 10.1021/acs.jctc.7b00118
   for GFN0-xTB:
   * P. Pracht, E. Caldeweyher, S. Ehlert, S. Grimme, ChemRxiv, 2019, preprint.
     DOI: 10.26434/chemrxiv.8326202.v1
   for GFN-FF:
   * S. Spicher and S. Grimme, Angew. Chem. Int. Ed., 2020, 59, 15665-15673.
     DOI: 10.1002/anie.202004239
   
   for ALPB and GBSA implicit solvation:
   * S. Ehlert, M. Stahn, S. Spicher, S. Grimme, J. Chem. Theory Comput.,
     2021, 17, 4250-4261. DOI: 10.1021/acs.jctc.1c00471
   
   for ddCOSMO and CPCM-X implicit solvation:
   * M. Stahn, S. Ehlert, S. Grimme, J. Phys. Chem. A,
     2023, XX, XXXX-XXXX. DOI: 10.1021/acs.jpca.3c04382
   
   for DFT-D4:
   * E. Caldeweyher, C. Bannwarth and S. Grimme, J. Chem. Phys., 2017,
     147, 034112. DOI: 10.1063/1.4993215
   * E. Caldeweyher, S. Ehlert, A. Hansen, H. Neugebauer, S. Spicher,
     C. Bannwarth and S. Grimme, J. Chem. Phys., 2019, 150, 154122.
     DOI: 10.1063/1.5090222
   * E. Caldeweyher, J.-M. Mewes, S. Ehlert and S. Grimme, Phys. Chem. Chem. Phys.
     2020, 22, 8499-8512. DOI: 10.1039/D0CP00502A
   
   for sTDA-xTB:
   * S. Grimme and C. Bannwarth, J. Chem. Phys., 2016, 145, 054103.
     DOI: 10.1063/1.4959605
   
   in the mass-spec context:
   * V. Asgeirsson, C. Bauer and S. Grimme, Chem. Sci., 2017, 8, 4879.
     DOI: 10.1039/c7sc00601b
   * J. Koopman and S. Grimme, ACS Omega 2019, 4, 12, 15120-15133.
     DOI: 10.1021/acsomega.9b02011
   
   for metadynamics refer to:
   * S. Grimme, J. Chem. Theory Comput., 2019, 155, 2847-2862
     DOI: 10.1021/acs.jctc.9b00143
   
   for SPH calculations refer to:
   * S. Spicher and S. Grimme, J. Chem. Theory Comput., 2021, 17, 1701-1714
     DOI: 10.1021/acs.jctc.0c01306
   
   for ONIOM refer to:
   * C. Plett, A. Katbashev, S. Ehlert, S. Grimme, M. Bursch,
     Phys. Chem. Chem. Phys., 2023, 25, 17860-17868. DOI: 10.1039/D3CP02178E
   
   for DIPRO refer to:
   * J. Kohn, N. Gildemeister, S. Grimme, D. Fazzi, A. Hansen,
     J. Chem. Phys., 2023, just accepted.
   
   for PTB refer to:
   * S. Grimme, M. Mueller, A. Hansen, J. Chem. Phys., 2023, 158, 124111.
     DOI: 10.1063/5.0137838
   
   with help from (in alphabetical order)
   P. Atkinson, C. Bannwarth, F. Bohle, G. Brandenburg, E. Caldeweyher
   M. Checinski, S. Dohm, S. Ehlert, S. Ehrlich, I. Gerasimov, C. Hölzer
   A. Katbashev, J. Kohn, J. Koopman, C. Lavigne, S. Lehtola, F. März, M. Müller,
   F. Musil, H. Neugebauer, J. Pisarek, C. Plett, P. Pracht, F. Pultar,
   J. Seibert, P. Shushkov, S. Spicher, M. Stahn, M. Steiner, T. Strunk,
   J. Stückrath, T. Rose, and J. Unsleber
   
 * started run on 2026/06/19 at 18:52:46.096     
   ID    Z sym.   atoms
    1    6 C      1-11, 13, 18, 20, 22-25, 29, 31, 33, 34, 36-41, 43-50,
                  53-57, 59, 64-77
    2    8 O      12, 14-17, 19, 21, 26-28, 30, 32, 35, 42, 51, 52, 58, 60-63
    3    1 H      78-149

           -------------------------------------------------
          |                Calculation Setup                |
           -------------------------------------------------

          program call               : xtb PAPU-0083/conf01.xyz --gfn 2 --alpb octanol --chrg 0 --uhf 0 --namespace PAPU-0083/conf01_octanol
          hostname                   : cpu10
          calculation namespace      : PAPU-0083/conf01_octanol
          coordinate file            : PAPU-0083/conf01.xyz
          omp threads                :                    16


           -------------------------------------------------
          |                 G F N 2 - x T B                 |
           -------------------------------------------------

        Reference                      10.1021/acs.jctc.8b01176
      * Hamiltonian:
        H0-scaling (s, p, d)           1.850000    2.230000    2.230000
        zeta-weighting                 0.500000
      * Dispersion:
        s8                             2.700000
        a1                             0.520000
        a2                             5.000000
        s9                             5.000000
      * Repulsion:
        kExp                           1.500000    1.000000
        rExp                           1.000000
      * Coulomb:
        alpha                          2.000000
        third order                    shell-resolved
        anisotropic                    true
        a3                             3.000000
        a5                             4.000000
        cn-shift                       1.200000
        cn-exp                         4.000000
        max-rad                        5.000000

      * Solvation model:               ALPB
        Solvent                        octanol
        Parameter file                 internal GFN2-xTB/ALPB
        Dielectric constant                9.8629E+00
        Reference state                gsolv [1 M gas/solution]
        Free energy shift                  2.3397E-03 Eh       1.4682E+00 kcal/mol
        Temperature                        2.9815E+02 K
        Density                            8.3000E-01 kg/L
        Solvent mass                       1.3023E+02 g/mol
        Interaction kernel             P16
        Born radius scaling (c1)           1.5898E+00
        Born radii integrator          GBOBC
        Born offset                        0.0000E+00 a0       0.0000E+00 AA
        H-bond correction              true
        Ion screening                  false
        Surface tension                    1.0000E-05 Eh       1.5569E+01 dyn/cm
        Grid points                               230 per atom

          ...................................................
          :                      SETUP                      :
          :.................................................:
          :  # basis functions                 380          :
          :  # atomic orbitals                 380          :
          :  # shells                          226          :
          :  # electrons                       422          :
          :  max. iterations                   250          :
          :  Hamiltonian                  GFN2-xTB          :
          :  restarted?                      false          :
          :  GBSA solvation                   true          :
          :  PC potential                    false          :
          :  electronic temp.          300.0000000     K    :
          :  accuracy                    1.0000000          :
          :  -> integral cutoff          0.2500000E+02      :
          :  -> integral neglect         0.1000000E-07      :
          :  -> SCF convergence          0.1000000E-05 Eh   :
          :  -> wf. convergence          0.1000000E-03 e    :
          :  Broyden damping             0.4000000          :
          :  net charge                          0          :
          :  unpaired electrons                  0          :
          ...................................................

 iter      E             dE          RMSdq      gap      omega  full diag
   1   -244.5160230 -0.244516E+03  0.440E+00    2.58       0.0  T
   2   -244.7665007 -0.250478E+00  0.242E+00    1.86       1.0  T
   3   -244.7527170  0.137837E-01  0.102E+00    1.87       1.0  T
   4   -244.7882070 -0.354899E-01  0.305E-01    1.59       1.0  T
   5   -244.7942022 -0.599520E-02  0.129E-01    1.59       1.0  T
   6   -244.7950347 -0.832557E-03  0.609E-02    1.61       1.0  T
   7   -244.7951531 -0.118382E-03  0.262E-02    1.62       1.0  T
   8   -244.7951766 -0.234998E-04  0.107E-02    1.62       1.0  T
   9   -244.7951811 -0.453112E-05  0.452E-03    1.62       1.8  T
  10   -244.7951818 -0.690393E-06  0.287E-03    1.62       2.9  T
  11   -244.7951822 -0.423532E-06  0.136E-03    1.62       6.0  T
  12   -244.7951823 -0.571209E-07  0.587E-04    1.62      14.0  T
  13   -244.7951823 -0.137511E-07  0.272E-04    1.62      30.2  T

   *** convergence criteria satisfied after 13 iterations ***

         #    Occupation            Energy/Eh            Energy/eV
      -------------------------------------------------------------
         1        2.0000           -0.7880933             -21.4451
       ...           ...                  ...                  ...
       205        2.0000           -0.4097008             -11.1485
       206        2.0000           -0.4065479             -11.0627
       207        2.0000           -0.4058736             -11.0444
       208        2.0000           -0.4037048             -10.9854
       209        2.0000           -0.3915067             -10.6534
       210        2.0000           -0.3889683             -10.5844
       211        2.0000           -0.3760208             -10.2320 (HOMO)
       212                         -0.3165700              -8.6143 (LUMO)
       213                         -0.2913295              -7.9275
       214                         -0.2473906              -6.7318
       215                         -0.2417012              -6.5770
       216                         -0.2411249              -6.5613
       ...                                ...                  ...
       380                          0.6856111              18.6564
      -------------------------------------------------------------
                  HL-Gap            0.0594508 Eh            1.6177 eV
             Fermi-level           -0.3462954 Eh           -9.4232 eV

 SCC (total)                   0 d,  0 h,  0 min,  0.270 sec
 SCC setup                      ...        0 min,  0.004 sec (  1.362%)
 Dispersion                     ...        0 min,  0.004 sec (  1.656%)
 classical contributions        ...        0 min,  0.000 sec (  0.046%)
 integral evaluation            ...        0 min,  0.012 sec (  4.507%)
 iterations                     ...        0 min,  0.209 sec ( 77.284%)
 molecular gradient             ...        0 min,  0.040 sec ( 14.823%)
 printout                       ...        0 min,  0.001 sec (  0.303%)

         :::::::::::::::::::::::::::::::::::::::::::::::::::::
         ::                     SUMMARY                     ::
         :::::::::::::::::::::::::::::::::::::::::::::::::::::
         :: total energy            -242.089861149756 Eh    ::
         :: total w/o Gsasa/hb      -242.016893914212 Eh    ::
         :: gradient norm              0.121923583740 Eh/a0 ::
         :: HOMO-LUMO gap              1.617738896882 eV    ::
         ::.................................................::
         :: SCC energy              -244.780996799033 Eh    ::
         :: -> isotropic ES            0.520747746393 Eh    ::
         :: -> anisotropic ES         -0.021045803204 Eh    ::
         :: -> anisotropic XC          0.027033956735 Eh    ::
         :: -> dispersion             -0.204422190014 Eh    ::
         :: -> Gsolv                  -0.099168939468 Eh    ::
         ::    -> Gelec               -0.026201703924 Eh    ::
         ::    -> Gsasa               -0.032237186271 Eh    ::
         ::    -> Ghb                 -0.043069718648 Eh    ::
         ::    -> Gshift               0.002339669376 Eh    ::
         :: repulsion energy           2.691135649278 Eh    ::
         :: add. restraining           0.000000000000 Eh    ::
         :: total charge              -0.000000000000 e     ::
         :::::::::::::::::::::::::::::::::::::::::::::::::::::

           -------------------------------------------------
          |                Property Printout                |
           -------------------------------------------------

    * Orbital Energies and Occupations

         #    Occupation            Energy/Eh            Energy/eV
      -------------------------------------------------------------
         1        2.0000           -0.7880933             -21.4451
       ...           ...                  ...                  ...
       199        2.0000           -0.4206986             -11.4478
       200        2.0000           -0.4195651             -11.4169
       201        2.0000           -0.4186491             -11.3920
       202        2.0000           -0.4149625             -11.2917
       203        2.0000           -0.4113454             -11.1933
       204        2.0000           -0.4108294             -11.1792
       205        2.0000           -0.4097008             -11.1485
       206        2.0000           -0.4065479             -11.0627
       207        2.0000           -0.4058736             -11.0444
       208        2.0000           -0.4037048             -10.9854
       209        2.0000           -0.3915067             -10.6534
       210        2.0000           -0.3889683             -10.5844
       211        2.0000           -0.3760208             -10.2320 (HOMO)
       212                         -0.3165700              -8.6143 (LUMO)
       213                         -0.2913295              -7.9275
       214                         -0.2473906              -6.7318
       215                         -0.2417012              -6.5770
       216                         -0.2411249              -6.5613
       217                         -0.2394598              -6.5160
       218                         -0.2347688              -6.3884
       219                         -0.2318309              -6.3084
       220                         -0.2211252              -6.0171
       221                         -0.1935665              -5.2672
       222                         -0.1755346              -4.7765
       ...                                ...                  ...
       380                          0.6856111              18.6564
      -------------------------------------------------------------
                  HL-Gap            0.0594508 Eh            1.6177 eV
             Fermi-level           -0.3462954 Eh           -9.4232 eV

     #   Z          covCN         q      C6AA      α(0)
     1   6 C        2.842     0.144    24.863     8.172
     2   6 C        2.968    -0.052    29.293     8.878
     3   6 C        2.964    -0.002    28.078     8.692
     4   6 C        2.930    -0.072    29.808     8.954
     5   6 C        2.837     0.151    24.712     8.147
     6   6 C        2.920    -0.102    30.582     9.069
     7   6 C        3.732     0.102    18.984     6.219
     8   6 C        3.721     0.091    19.175     6.254
     9   6 C        3.759     0.108    18.852     6.190
    10   6 C        3.746     0.087    19.205     6.251
    11   6 C        3.731     0.088    19.214     6.257
    12   8 O        1.691    -0.351    19.919     6.026
    13   6 C        3.684     0.077    19.489     6.321
    14   8 O        1.652    -0.482    22.505     6.404
    15   8 O        1.651    -0.484    22.548     6.410
    16   8 O        1.698    -0.315    19.257     5.925
    17   8 O        1.701    -0.299    18.972     5.881
    18   6 C        3.674     0.065    19.716     6.363
    19   8 O        1.651    -0.474    22.337     6.380
    20   6 C        3.642     0.244    17.128     5.950
    21   8 O        1.696    -0.361    20.092     6.052
    22   6 C        3.740     0.112    18.816     6.189
    23   6 C        3.722     0.086    19.262     6.268
    24   6 C        3.724     0.094    19.124     6.244
    25   6 C        3.736     0.084    19.257     6.262
    26   8 O        1.652    -0.472    22.297     6.374
    27   8 O        1.698    -0.320    19.353     5.939
    28   8 O        1.653    -0.483    22.537     6.409
    29   6 C        3.734     0.069    19.513     6.305
    30   8 O        1.704    -0.268    18.437     5.797
    31   6 C        2.753     0.349    21.069     7.516
    32   8 O        0.857    -0.444    22.579     6.371
    33   6 C        2.728     0.353    21.014     7.505
    34   6 C        2.895    -0.092    30.320     9.028
    35   8 O        0.858    -0.456    22.828     6.406
    36   6 C        2.902    -0.010    28.268     8.718
    37   6 C        2.898    -0.043    29.055     8.838
    38   6 C        2.895    -0.019    28.489     8.751
    39   6 C        3.806    -0.082    22.068     6.687
    40   6 C        3.727     0.122    18.686     6.172
    41   6 C        2.896    -0.055    29.372     8.886
    42   8 O        1.652    -0.497    22.838     6.451
    43   6 C        2.898    -0.048    29.197     8.860
    44   6 C        2.899    -0.053    29.306     8.876
    45   6 C        2.896    -0.038    28.953     8.822
    46   6 C        3.806    -0.068    21.796     6.646
    47   6 C        3.801    -0.060    21.662     6.626
    48   6 C        3.800    -0.058    21.621     6.620
    49   6 C        3.799    -0.055    21.566     6.612
    50   6 C        3.750    -0.101    22.487     6.763
    51   8 O        1.656    -0.437    21.582     6.271
    52   8 O        1.657    -0.428    21.409     6.246
    53   6 C        3.631     0.222    17.476     6.018
    54   6 C        3.723     0.084    19.290     6.272
    55   6 C        3.724     0.092    19.151     6.249
    56   6 C        3.722     0.086    19.252     6.266
    57   6 C        3.739     0.090    19.172     6.248
    58   8 O        1.695    -0.352    19.934     6.028
    59   6 C        3.674     0.066    19.690     6.358
    60   8 O        1.653    -0.482    22.512     6.405
    61   8 O        1.654    -0.480    22.458     6.397
    62   8 O        1.652    -0.480    22.475     6.400
    63   8 O        1.654    -0.485    22.562     6.412
    64   6 C        2.974    -0.031    28.779     8.800
    65   6 C        2.926    -0.032    28.797     8.800
    66   6 C        2.926    -0.036    28.907     8.817
    67   6 C        2.977     0.022    27.515     8.604
    68   6 C        2.926    -0.036    28.884     8.814
    69   6 C        2.924    -0.022    28.549     8.762
    70   6 C        2.976     0.000    28.023     8.683
    71   6 C        2.926    -0.038    28.954     8.824
    72   6 C        2.925    -0.041    29.022     8.835
    73   6 C        2.972     0.019    27.575     8.614
    74   6 C        2.925    -0.042    29.042     8.838
    75   6 C        2.925    -0.039    28.966     8.826
    76   6 C        3.806    -0.063    21.697     6.631
    77   6 C        3.752    -0.112    22.701     6.795
    78   1 H        0.926     0.079     1.993     2.208
    79   1 H        0.926     0.078     2.004     2.214
    80   1 H        0.924     0.034     2.528     2.486
    81   1 H        0.923     0.060     2.199     2.319
    82   1 H        0.923     0.026     2.638     2.540
    83   1 H        0.923     0.088     1.896     2.154
    84   1 H        0.924     0.036     2.506     2.476
    85   1 H        0.924     0.015     2.809     2.621
    86   1 H        0.924     0.059     2.210     2.325
    87   1 H        0.802     0.325     0.651     1.267
    88   1 H        0.802     0.345     0.599     1.216
    89   1 H        0.924     0.075     2.035     2.231
    90   1 H        0.924     0.069     2.098     2.265
    91   1 H        0.801     0.329     0.640     1.257
    92   1 H        0.924     0.012     2.851     2.640
    93   1 H        0.923     0.032     2.565     2.505
    94   1 H        0.923     0.057     2.238     2.340
    95   1 H        0.923     0.035     2.512     2.479
    96   1 H        0.924     0.065     2.141     2.288
    97   1 H        0.802     0.351     0.585     1.202
    98   1 H        0.803     0.370     0.544     1.159
    99   1 H        0.924     0.081     1.965     2.192
   100   1 H        0.924     0.107     1.724     2.054
   101   1 H        0.926     0.104     1.752     2.070
   102   1 H        0.926     0.082     1.963     2.191
   103   1 H        0.926     0.075     2.026     2.226
   104   1 H        0.926     0.060     2.196     2.318
   105   1 H        0.924     0.062     2.175     2.306
   106   1 H        0.924     0.073     2.056     2.243
   107   1 H        0.923     0.029     2.599     2.521
   108   1 H        0.926     0.062     2.177     2.307
   109   1 H        0.804     0.339     0.614     1.230
   110   1 H        0.926     0.045     2.381     2.413
   111   1 H        0.926     0.050     2.321     2.382
   112   1 H        0.926     0.012     2.860     2.644
   113   1 H        0.924     0.055     2.253     2.347
   114   1 H        0.924     0.051     2.307     2.375
   115   1 H        0.924     0.026     2.638     2.540
   116   1 H        0.924     0.035     2.517     2.481
   117   1 H        0.924     0.031     2.574     2.509
   118   1 H        0.924     0.029     2.605     2.524
   119   1 H        0.924     0.040     2.451     2.448
   120   1 H        0.923     0.027     2.626     2.534
   121   1 H        0.924     0.037     2.485     2.465
   122   1 H        0.924     0.035     2.515     2.480
   123   1 H        0.924     0.021     2.721     2.580
   124   1 H        0.803     0.341     0.610     1.227
   125   1 H        0.804     0.362     0.560     1.176
   126   1 H        0.923     0.061     2.184     2.311
   127   1 H        0.923     0.041     2.439     2.442
   128   1 H        0.923     0.042     2.427     2.436
   129   1 H        0.923     0.061     2.191     2.315
   130   1 H        0.923     0.047     2.357     2.401
   131   1 H        0.924     0.058     2.224     2.332
   132   1 H        0.924     0.076     2.024     2.225
   133   1 H        0.803     0.367     0.550     1.165
   134   1 H        0.804     0.365     0.555     1.170
   135   1 H        0.802     0.341     0.609     1.226
   136   1 H        0.803     0.354     0.579     1.195
   137   1 H        0.926     0.053     2.287     2.365
   138   1 H        0.926     0.060     2.200     2.320
   139   1 H        0.926     0.064     2.149     2.292
   140   1 H        0.926     0.064     2.151     2.294
   141   1 H        0.926     0.032     2.559     2.502
   142   1 H        0.926     0.041     2.433     2.439
   143   1 H        0.926     0.047     2.357     2.401
   144   1 H        0.926     0.045     2.388     2.416
   145   1 H        0.924     0.042     2.424     2.435
   146   1 H        0.924     0.041     2.439     2.442
   147   1 H        0.924     0.042     2.423     2.434
   148   1 H        0.924     0.037     2.492     2.469
   149   1 H        0.924     0.053     2.279     2.361

 Mol. C6AA /au·bohr⁶  :     220158.879410
 Mol. C8AA /au·bohr⁸  :    5050396.369714
 Mol. α(0) /au        :        709.309359


Wiberg/Mayer (AO) data.
largest (>0.10) Wiberg bond orders for each atom

 ---------------------------------------------------------------------------
     #   Z sym  total        # sym  WBO       # sym  WBO       # sym  WBO
 ---------------------------------------------------------------------------
     1   6 C    3.944 --     6 C    1.389     2 C    1.334    51 O    1.074
     2   6 C    3.965 --     3 C    1.384     1 C    1.334     7 C    0.988
     3   6 C    3.986 --     4 C    1.431     2 C    1.384    13 C    0.999
     4   6 C    3.982 --     3 C    1.431     5 C    1.359    78 H    0.962
     5   6 C    3.946 --     6 C    1.381     4 C    1.359    52 O    1.078
     6   6 C    3.977 --     1 C    1.389     5 C    1.381    79 H    0.960
     7   6 C    3.932 --     2 C    0.988    80 H    0.951     8 C    0.947
                            12 O    0.943
     8   6 C    3.953 --    15 O    0.994     9 C    0.965    81 H    0.958
                             7 C    0.947
     9   6 C    3.936 --    10 C    0.968     8 C    0.965    82 H    0.949
                            17 O    0.945
    10   6 C    3.933 --     9 C    0.968    11 C    0.961    16 O    0.956
                            83 H    0.952
    11   6 C    3.944 --    18 C    0.982    12 O    0.962    10 C    0.961
                            84 H    0.950
    12   8 O    2.075 --    11 C    0.962     7 C    0.943
    13   6 C    3.960 --     3 C    0.999    14 O    0.993    86 H    0.967
                            85 H    0.947
    14   8 O    1.934 --    13 C    0.993    87 H    0.847
    15   8 O    1.955 --     8 C    0.994    88 H    0.825
    16   8 O    2.120 --    20 C    0.986    10 C    0.956
    17   8 O    2.253 --    33 C    1.058     9 C    0.945    35 O    0.141
    18   6 C    3.951 --    19 O    1.006    11 C    0.982    90 H    0.966
                            89 H    0.963
    19   8 O    1.927 --    18 C    1.006    91 H    0.849
    20   6 C    3.927 --    16 O    0.986    21 O    0.955    25 C    0.954
                            92 H    0.940
    21   8 O    2.062 --    20 C    0.955    22 C    0.941
    22   6 C    3.934 --    29 C    0.981    23 C    0.968    93 H    0.956
                            21 O    0.941
    23   6 C    3.965 --    28 O    1.009    22 C    0.968    24 C    0.961
                            94 H    0.953
    24   6 C    3.965 --    26 O    1.004    25 C    0.966    23 C    0.961
                            95 H    0.948
    25   6 C    3.945 --    24 C    0.966    27 O    0.963    20 C    0.954
                            96 H    0.951
    26   8 O    1.947 --    24 C    1.004    97 H    0.823
    27   8 O    2.116 --    53 C    0.980    25 C    0.963
    28   8 O    1.923 --    23 C    1.009    98 H    0.838
    29   6 C    3.928 --    22 C    0.981    30 O    0.967    99 H    0.960
                           100 H    0.959
    30   8 O    2.284 --    31 C    1.087    29 C    0.967    32 O    0.154
    31   6 C    3.899 --    32 O    1.704    30 O    1.087    64 C    1.022
    32   8 O    2.007 --    31 C    1.704    30 O    0.154
    33   6 C    3.894 --    35 O    1.650    34 C    1.079    17 O    1.058
    34   6 C    3.963 --    36 C    1.718    33 C    1.079   101 H    0.951
                            38 C    0.105
    35   8 O    1.999 --    33 C    1.650    17 O    0.141
    36   6 C    3.969 --    34 C    1.718    37 C    1.153   102 H    0.943
    37   6 C    3.986 --    38 C    1.782    36 C    1.153   103 H    0.956
    38   6 C    3.961 --    37 C    1.782    39 C    1.044   104 H    0.958
                            34 C    0.105
    39   6 C    3.983 --    38 C    1.044   106 H    0.966   105 H    0.963
                            40 C    0.934
    40   6 C    3.943 --    41 C    1.012    42 O    0.981   107 H    0.958
                            39 C    0.934
    41   6 C    3.978 --    43 C    1.831    40 C    1.012   108 H    0.962
                            45 C    0.128
    42   8 O    1.921 --    40 C    0.981   109 H    0.869
    43   6 C    3.989 --    41 C    1.831    44 C    1.124   110 H    0.953
    44   6 C    3.989 --    45 C    1.827    43 C    1.124   111 H    0.962
    45   6 C    3.984 --    44 C    1.827    46 C    1.033   112 H    0.958
                            41 C    0.128
    46   6 C    3.996 --    45 C    1.033    47 C    1.004   114 H    0.963
                           113 H    0.950
    47   6 C    3.993 --    48 C    1.008    46 C    1.004   115 H    0.975
                           116 H    0.967
    48   6 C    3.996 --    47 C    1.008    49 C    1.007   118 H    0.977
                           117 H    0.977
    49   6 C    3.996 --    50 C    1.021    48 C    1.007   120 H    0.978
                           119 H    0.972
    50   6 C    3.996 --    49 C    1.021   121 H    0.986   122 H    0.983
                           123 H    0.982
    51   8 O    2.082 --     1 C    1.074   124 H    0.831
    52   8 O    2.093 --     5 C    1.078   125 H    0.849
    53   6 C    3.914 --    27 O    0.980    58 O    0.952    54 C    0.950
                           126 H    0.945
    54   6 C    3.960 --    62 O    1.003    55 C    0.967    53 C    0.950
                           127 H    0.950
    55   6 C    3.963 --    61 O    1.003    56 C    0.968    54 C    0.967
                           128 H    0.959
    56   6 C    3.962 --    60 O    1.000    55 C    0.968    57 C    0.968
                           129 H    0.956
    57   6 C    3.931 --    59 C    0.982    56 C    0.968   130 H    0.956
                            58 O    0.940
    58   8 O    2.075 --    53 C    0.952    57 C    0.940
    59   6 C    3.960 --    63 O    1.017    57 C    0.982   132 H    0.966
                           131 H    0.962
    60   8 O    1.944 --    56 C    1.000   133 H    0.836
    61   8 O    1.935 --    55 C    1.003   134 H    0.849
    62   8 O    1.933 --    54 C    1.003   135 H    0.841
    63   8 O    1.923 --    59 C    1.017   136 H    0.833
    64   6 C    3.977 --    69 C    1.371    65 C    1.367    31 C    1.022
    65   6 C    3.989 --    66 C    1.472    64 C    1.367   137 H    0.962
    66   6 C    3.989 --    65 C    1.472    67 C    1.374   138 H    0.965
    67   6 C    3.984 --    66 C    1.374    68 C    1.368    70 C    1.053
    68   6 C    3.987 --    69 C    1.469    67 C    1.368   139 H    0.963
    69   6 C    3.986 --    68 C    1.469    64 C    1.371   140 H    0.963
    70   6 C    3.986 --    75 C    1.381    71 C    1.379    67 C    1.053
                            73 C    0.100
    71   6 C    3.988 --    72 C    1.459    70 C    1.379   141 H    0.966
                            74 C    0.104
    72   6 C    3.990 --    71 C    1.459    73 C    1.404   142 H    0.967
                            75 C    0.104
    73   6 C    3.979 --    72 C    1.404    74 C    1.402    76 C    1.013
                            70 C    0.100
    74   6 C    3.990 --    75 C    1.461    73 C    1.402   143 H    0.968
                            71 C    0.104
    75   6 C    3.988 --    74 C    1.461    70 C    1.381   144 H    0.967
                            72 C    0.104
    76   6 C    3.996 --    73 C    1.013    77 C    1.002   146 H    0.973
                           145 H    0.971
    77   6 C    3.991 --    76 C    1.002   148 H    0.987   147 H    0.985
                           149 H    0.981
    78   1 H    0.993 --     4 C    0.962
    79   1 H    0.993 --     6 C    0.960
    80   1 H    0.998 --     7 C    0.951
    81   1 H    0.996 --     8 C    0.958
    82   1 H    0.999 --     9 C    0.949
    83   1 H    0.992 --    10 C    0.952
    84   1 H    0.999 --    11 C    0.950
    85   1 H    0.999 --    13 C    0.947
    86   1 H    0.996 --    13 C    0.967
    87   1 H    0.894 --    14 O    0.847
    88   1 H    0.880 --    15 O    0.825
    89   1 H    0.994 --    18 C    0.963
    90   1 H    0.995 --    18 C    0.966
    91   1 H    0.892 --    19 O    0.849
    92   1 H    1.000 --    20 C    0.940
    93   1 H    0.999 --    22 C    0.956
    94   1 H    0.996 --    23 C    0.953
    95   1 H    0.999 --    24 C    0.948
    96   1 H    0.995 --    25 C    0.951
    97   1 H    0.876 --    26 O    0.823
    98   1 H    0.863 --    28 O    0.838
    99   1 H    0.992 --    29 C    0.960
   100   1 H    0.988 --    29 C    0.959
   101   1 H    0.989 --    34 C    0.951
   102   1 H    0.993 --    36 C    0.943
   103   1 H    0.994 --    37 C    0.956
   104   1 H    0.996 --    38 C    0.958
   105   1 H    0.992 --    39 C    0.963
   106   1 H    0.994 --    39 C    0.966
   107   1 H    0.999 --    40 C    0.958
   108   1 H    0.996 --    41 C    0.962
   109   1 H    0.884 --    42 O    0.869
   110   1 H    0.998 --    43 C    0.953
   111   1 H    0.997 --    44 C    0.962
   112   1 H    1.000 --    45 C    0.958
   113   1 H    0.989 --    46 C    0.950
   114   1 H    0.997 --    46 C    0.963
   115   1 H    0.999 --    47 C    0.975
   116   1 H    0.999 --    47 C    0.967
   117   1 H    0.999 --    48 C    0.977
   118   1 H    0.999 --    48 C    0.977
   119   1 H    0.998 --    49 C    0.972
   120   1 H    0.999 --    49 C    0.978
   121   1 H    0.999 --    50 C    0.986
   122   1 H    0.999 --    50 C    0.983
   123   1 H    1.000 --    50 C    0.982
   124   1 H    0.883 --    51 O    0.831
   125   1 H    0.868 --    52 O    0.849
   126   1 H    0.995 --    53 C    0.945
   127   1 H    0.998 --    54 C    0.950
   128   1 H    0.998 --    55 C    0.959
   129   1 H    0.996 --    56 C    0.956
   130   1 H    0.998 --    57 C    0.956
   131   1 H    0.996 --    59 C    0.962
   132   1 H    0.994 --    59 C    0.966
   133   1 H    0.865 --    60 O    0.836
   134   1 H    0.866 --    61 O    0.849
   135   1 H    0.883 --    62 O    0.841
   136   1 H    0.875 --    63 O    0.833
   137   1 H    0.997 --    65 C    0.962
   138   1 H    0.996 --    66 C    0.965
   139   1 H    0.995 --    68 C    0.963
   140   1 H    0.995 --    69 C    0.963
   141   1 H    0.999 --    71 C    0.966
   142   1 H    0.998 --    72 C    0.967
   143   1 H    0.997 --    74 C    0.968
   144   1 H    0.998 --    75 C    0.967
   145   1 H    0.998 --    76 C    0.971
   146   1 H    0.998 --    76 C    0.973
   147   1 H    0.997 --    77 C    0.985
   148   1 H    0.999 --    77 C    0.987
   149   1 H    0.997 --    77 C    0.981
 ---------------------------------------------------------------------------

Topologies differ in total number of bonds
Writing topology from bond orders to xtbtopo.mol

molecular dipole:
                 x           y           z       tot (Debye)
 q only:        0.926      -2.744       1.405
   full:        1.417      -3.075       1.639       9.562
molecular quadrupole (traceless):
                xx          xy          yy          xz          yz          zz
 q only:       62.572      -5.925     -34.468      30.538     -12.022     -28.105
  q+dip:       43.637     -15.017     -23.243      41.852     -20.349     -20.394
   full:       42.518     -12.753     -27.160      42.090     -19.396     -15.358


           -------------------------------------------------
          | TOTAL ENERGY             -242.089861149756 Eh   |
          | GRADIENT NORM               0.121923583740 Eh/α |
          | HOMO-LUMO GAP               1.617738896882 eV   |
           -------------------------------------------------

------------------------------------------------------------------------
 * finished run on 2026/06/19 at 18:52:46.424     
------------------------------------------------------------------------
 total:
 * wall-time:     0 d,  0 h,  0 min,  0.328 sec
 *  cpu-time:     0 d,  0 h,  0 min,  5.019 sec
 * ratio c/w:    15.323 speedup
 SCF:
 * wall-time:     0 d,  0 h,  0 min,  0.271 sec
 *  cpu-time:     0 d,  0 h,  0 min,  4.302 sec
 * ratio c/w:    15.870 speedup

normal termination of xtb
