      -----------------------------------------------------------      
     |                   =====================                   |     
     |                           x T B                           |     
     |                   =====================                   |     
     |                         S. Grimme                         |     
     |          Mulliken Center for Theoretical Chemistry        |     
     |                    University of Bonn                     |     
      -----------------------------------------------------------      

   * xtb version 6.7.1 (edcfbbe) compiled by 'albert@albert-system' on 2024-07-22

   xtb is free software: you can redistribute it and/or modify it under
   the terms of the GNU Lesser General Public License as published by
   the Free Software Foundation, either version 3 of the License, or
   (at your option) any later version.
   
   xtb is distributed in the hope that it will be useful,
   but WITHOUT ANY WARRANTY; without even the implied warranty of
   MERCHANTABILITY or FITNESS FOR A PARTICULAR PURPOSE.  See the
   GNU Lesser General Public License for more details.
   
   Cite this work as:
   * C. Bannwarth, E. Caldeweyher, S. Ehlert, A. Hansen, P. Pracht,
     J. Seibert, S. Spicher, S. Grimme, WIREs Comput. Mol. Sci., 2020, 11,
     e01493. DOI: 10.1002/wcms.1493
   
   for GFN2-xTB:
   * C. Bannwarth, S. Ehlert and S. Grimme., J. Chem. Theory Comput., 2019,
     15, 1652-1671. DOI: 10.1021/acs.jctc.8b01176
   for GFN1-xTB:
   * S. Grimme, C. Bannwarth, P. Shushkov, J. Chem. Theory Comput., 2017,
     13, 1989-2009. DOI: 10.1021/acs.jctc.7b00118
   for GFN0-xTB:
   * P. Pracht, E. Caldeweyher, S. Ehlert, S. Grimme, ChemRxiv, 2019, preprint.
     DOI: 10.26434/chemrxiv.8326202.v1
   for GFN-FF:
   * S. Spicher and S. Grimme, Angew. Chem. Int. Ed., 2020, 59, 15665-15673.
     DOI: 10.1002/anie.202004239
   
   for ALPB and GBSA implicit solvation:
   * S. Ehlert, M. Stahn, S. Spicher, S. Grimme, J. Chem. Theory Comput.,
     2021, 17, 4250-4261. DOI: 10.1021/acs.jctc.1c00471
   
   for ddCOSMO and CPCM-X implicit solvation:
   * M. Stahn, S. Ehlert, S. Grimme, J. Phys. Chem. A,
     2023, XX, XXXX-XXXX. DOI: 10.1021/acs.jpca.3c04382
   
   for DFT-D4:
   * E. Caldeweyher, C. Bannwarth and S. Grimme, J. Chem. Phys., 2017,
     147, 034112. DOI: 10.1063/1.4993215
   * E. Caldeweyher, S. Ehlert, A. Hansen, H. Neugebauer, S. Spicher,
     C. Bannwarth and S. Grimme, J. Chem. Phys., 2019, 150, 154122.
     DOI: 10.1063/1.5090222
   * E. Caldeweyher, J.-M. Mewes, S. Ehlert and S. Grimme, Phys. Chem. Chem. Phys.
     2020, 22, 8499-8512. DOI: 10.1039/D0CP00502A
   
   for sTDA-xTB:
   * S. Grimme and C. Bannwarth, J. Chem. Phys., 2016, 145, 054103.
     DOI: 10.1063/1.4959605
   
   in the mass-spec context:
   * V. Asgeirsson, C. Bauer and S. Grimme, Chem. Sci., 2017, 8, 4879.
     DOI: 10.1039/c7sc00601b
   * J. Koopman and S. Grimme, ACS Omega 2019, 4, 12, 15120-15133.
     DOI: 10.1021/acsomega.9b02011
   
   for metadynamics refer to:
   * S. Grimme, J. Chem. Theory Comput., 2019, 155, 2847-2862
     DOI: 10.1021/acs.jctc.9b00143
   
   for SPH calculations refer to:
   * S. Spicher and S. Grimme, J. Chem. Theory Comput., 2021, 17, 1701-1714
     DOI: 10.1021/acs.jctc.0c01306
   
   for ONIOM refer to:
   * C. Plett, A. Katbashev, S. Ehlert, S. Grimme, M. Bursch,
     Phys. Chem. Chem. Phys., 2023, 25, 17860-17868. DOI: 10.1039/D3CP02178E
   
   for DIPRO refer to:
   * J. Kohn, N. Gildemeister, S. Grimme, D. Fazzi, A. Hansen,
     J. Chem. Phys., 2023, just accepted.
   
   for PTB refer to:
   * S. Grimme, M. Mueller, A. Hansen, J. Chem. Phys., 2023, 158, 124111.
     DOI: 10.1063/5.0137838
   
   with help from (in alphabetical order)
   P. Atkinson, C. Bannwarth, F. Bohle, G. Brandenburg, E. Caldeweyher
   M. Checinski, S. Dohm, S. Ehlert, S. Ehrlich, I. Gerasimov, C. Hölzer
   A. Katbashev, J. Kohn, J. Koopman, C. Lavigne, S. Lehtola, F. März, M. Müller,
   F. Musil, H. Neugebauer, J. Pisarek, C. Plett, P. Pracht, F. Pultar,
   J. Seibert, P. Shushkov, S. Spicher, M. Stahn, M. Steiner, T. Strunk,
   J. Stückrath, T. Rose, and J. Unsleber
   
 * started run on 2026/06/19 at 18:52:48.139     
   ID    Z sym.   atoms
    1    6 C      1-11, 13, 18, 20, 22-25, 29, 31, 33, 34, 36-41, 43-50,
                  53-57, 59, 64-77
    2    8 O      12, 14-17, 19, 21, 26-28, 30, 32, 35, 42, 51, 52, 58, 60-63
    3    1 H      78-149

           -------------------------------------------------
          |                Calculation Setup                |
           -------------------------------------------------

          program call               : xtb PAPU-0083/conf04.xyz --gfn 2 --alpb octanol --chrg 0 --uhf 0 --namespace PAPU-0083/conf04_octanol
          hostname                   : cpu10
          calculation namespace      : PAPU-0083/conf04_octanol
          coordinate file            : PAPU-0083/conf04.xyz
          omp threads                :                    16


           -------------------------------------------------
          |                 G F N 2 - x T B                 |
           -------------------------------------------------

        Reference                      10.1021/acs.jctc.8b01176
      * Hamiltonian:
        H0-scaling (s, p, d)           1.850000    2.230000    2.230000
        zeta-weighting                 0.500000
      * Dispersion:
        s8                             2.700000
        a1                             0.520000
        a2                             5.000000
        s9                             5.000000
      * Repulsion:
        kExp                           1.500000    1.000000
        rExp                           1.000000
      * Coulomb:
        alpha                          2.000000
        third order                    shell-resolved
        anisotropic                    true
        a3                             3.000000
        a5                             4.000000
        cn-shift                       1.200000
        cn-exp                         4.000000
        max-rad                        5.000000

      * Solvation model:               ALPB
        Solvent                        octanol
        Parameter file                 internal GFN2-xTB/ALPB
        Dielectric constant                9.8629E+00
        Reference state                gsolv [1 M gas/solution]
        Free energy shift                  2.3397E-03 Eh       1.4682E+00 kcal/mol
        Temperature                        2.9815E+02 K
        Density                            8.3000E-01 kg/L
        Solvent mass                       1.3023E+02 g/mol
        Interaction kernel             P16
        Born radius scaling (c1)           1.5898E+00
        Born radii integrator          GBOBC
        Born offset                        0.0000E+00 a0       0.0000E+00 AA
        H-bond correction              true
        Ion screening                  false
        Surface tension                    1.0000E-05 Eh       1.5569E+01 dyn/cm
        Grid points                               230 per atom

          ...................................................
          :                      SETUP                      :
          :.................................................:
          :  # basis functions                 380          :
          :  # atomic orbitals                 380          :
          :  # shells                          226          :
          :  # electrons                       422          :
          :  max. iterations                   250          :
          :  Hamiltonian                  GFN2-xTB          :
          :  restarted?                      false          :
          :  GBSA solvation                   true          :
          :  PC potential                    false          :
          :  electronic temp.          300.0000000     K    :
          :  accuracy                    1.0000000          :
          :  -> integral cutoff          0.2500000E+02      :
          :  -> integral neglect         0.1000000E-07      :
          :  -> SCF convergence          0.1000000E-05 Eh   :
          :  -> wf. convergence          0.1000000E-03 e    :
          :  Broyden damping             0.4000000          :
          :  net charge                          0          :
          :  unpaired electrons                  0          :
          ...................................................

 iter      E             dE          RMSdq      gap      omega  full diag
   1   -244.5271446 -0.244527E+03  0.443E+00    2.53       0.0  T
   2   -244.7739937 -0.246849E+00  0.243E+00    1.92       1.0  T
   3   -244.7612794  0.127143E-01  0.101E+00    1.97       1.0  T
   4   -244.7956326 -0.343532E-01  0.293E-01    1.71       1.0  T
   5   -244.8009146 -0.528200E-02  0.128E-01    1.71       1.0  T
   6   -244.8017045 -0.789883E-03  0.611E-02    1.73       1.0  T
   7   -244.8018320 -0.127464E-03  0.265E-02    1.74       1.0  T
   8   -244.8018575 -0.255586E-04  0.107E-02    1.74       1.0  T
   9   -244.8018621 -0.454246E-05  0.428E-03    1.74       1.9  T
  10   -244.8018625 -0.441826E-06  0.230E-03    1.74       3.6  T
  11   -244.8018627 -0.149015E-06  0.122E-03    1.74       6.7  T
  12   -244.8018627 -0.648435E-07  0.514E-04    1.74      15.9  T
  13   -244.8018627 -0.105529E-07  0.255E-04    1.74      32.1  T

   *** convergence criteria satisfied after 13 iterations ***

         #    Occupation            Energy/Eh            Energy/eV
      -------------------------------------------------------------
         1        2.0000           -0.7816183             -21.2689
       ...           ...                  ...                  ...
       205        2.0000           -0.4073907             -11.0857
       206        2.0000           -0.4043407             -11.0027
       207        2.0000           -0.4037381             -10.9863
       208        2.0000           -0.4014307             -10.9235
       209        2.0000           -0.3874367             -10.5427
       210        2.0000           -0.3872185             -10.5368
       211        2.0000           -0.3772146             -10.2645 (HOMO)
       212                         -0.3133410              -8.5264 (LUMO)
       213                         -0.2897823              -7.8854
       214                         -0.2486267              -6.7655
       215                         -0.2394979              -6.5171
       216                         -0.2389422              -6.5019
       ...                                ...                  ...
       380                          0.6882646              18.7286
      -------------------------------------------------------------
                  HL-Gap            0.0638736 Eh            1.7381 eV
             Fermi-level           -0.3452778 Eh           -9.3955 eV

 SCC (total)                   0 d,  0 h,  0 min,  0.273 sec
 SCC setup                      ...        0 min,  0.004 sec (  1.299%)
 Dispersion                     ...        0 min,  0.004 sec (  1.627%)
 classical contributions        ...        0 min,  0.000 sec (  0.066%)
 integral evaluation            ...        0 min,  0.012 sec (  4.553%)
 iterations                     ...        0 min,  0.211 sec ( 77.197%)
 molecular gradient             ...        0 min,  0.040 sec ( 14.643%)
 printout                       ...        0 min,  0.002 sec (  0.601%)

         :::::::::::::::::::::::::::::::::::::::::::::::::::::
         ::                     SUMMARY                     ::
         :::::::::::::::::::::::::::::::::::::::::::::::::::::
         :: total energy            -242.093182322947 Eh    ::
         :: total w/o Gsasa/hb      -242.016373201234 Eh    ::
         :: gradient norm              0.119503109018 Eh/a0 ::
         :: HOMO-LUMO gap              1.738088206513 eV    ::
         ::.................................................::
         :: SCC energy              -244.787908790650 Eh    ::
         :: -> isotropic ES            0.524887564501 Eh    ::
         :: -> anisotropic ES         -0.020474727188 Eh    ::
         :: -> anisotropic XC          0.025784667391 Eh    ::
         :: -> dispersion             -0.204356406072 Eh    ::
         :: -> Gsolv                  -0.104286280855 Eh    ::
         ::    -> Gelec               -0.027477159142 Eh    ::
         ::    -> Gsasa               -0.032476531543 Eh    ::
         ::    -> Ghb                 -0.046672259546 Eh    ::
         ::    -> Gshift               0.002339669376 Eh    ::
         :: repulsion energy           2.694726467703 Eh    ::
         :: add. restraining           0.000000000000 Eh    ::
         :: total charge               0.000000000000 e     ::
         :::::::::::::::::::::::::::::::::::::::::::::::::::::

           -------------------------------------------------
          |                Property Printout                |
           -------------------------------------------------

    * Orbital Energies and Occupations

         #    Occupation            Energy/Eh            Energy/eV
      -------------------------------------------------------------
         1        2.0000           -0.7816183             -21.2689
       ...           ...                  ...                  ...
       199        2.0000           -0.4199279             -11.4268
       200        2.0000           -0.4175170             -11.3612
       201        2.0000           -0.4139353             -11.2638
       202        2.0000           -0.4132503             -11.2451
       203        2.0000           -0.4130767             -11.2404
       204        2.0000           -0.4111583             -11.1882
       205        2.0000           -0.4073907             -11.0857
       206        2.0000           -0.4043407             -11.0027
       207        2.0000           -0.4037381             -10.9863
       208        2.0000           -0.4014307             -10.9235
       209        2.0000           -0.3874367             -10.5427
       210        2.0000           -0.3872185             -10.5368
       211        2.0000           -0.3772146             -10.2645 (HOMO)
       212                         -0.3133410              -8.5264 (LUMO)
       213                         -0.2897823              -7.8854
       214                         -0.2486267              -6.7655
       215                         -0.2394979              -6.5171
       216                         -0.2389422              -6.5019
       217                         -0.2362858              -6.4297
       218                         -0.2334803              -6.3533
       219                         -0.2280466              -6.2055
       220                         -0.2196758              -5.9777
       221                         -0.1904597              -5.1827
       222                         -0.1727088              -4.6996
       ...                                ...                  ...
       380                          0.6882646              18.7286
      -------------------------------------------------------------
                  HL-Gap            0.0638736 Eh            1.7381 eV
             Fermi-level           -0.3452778 Eh           -9.3955 eV

     #   Z          covCN         q      C6AA      α(0)
     1   6 C        2.841     0.145    24.846     8.169
     2   6 C        2.969    -0.051    29.257     8.872
     3   6 C        2.964    -0.003    28.109     8.696
     4   6 C        2.930    -0.073    29.809     8.954
     5   6 C        2.837     0.150    24.736     8.151
     6   6 C        2.920    -0.103    30.590     9.070
     7   6 C        3.731     0.102    18.983     6.219
     8   6 C        3.722     0.093    19.148     6.249
     9   6 C        3.762     0.109    18.838     6.187
    10   6 C        3.758     0.092    19.109     6.232
    11   6 C        3.732     0.103    18.977     6.218
    12   8 O        1.692    -0.343    19.761     6.002
    13   6 C        3.684     0.078    19.468     6.318
    14   8 O        1.652    -0.483    22.541     6.409
    15   8 O        1.651    -0.486    22.591     6.416
    16   8 O        1.699    -0.311    19.194     5.915
    17   8 O        1.701    -0.299    18.971     5.881
    18   6 C        3.676     0.076    19.533     6.332
    19   8 O        1.654    -0.490    22.680     6.429
    20   6 C        3.654     0.247    17.048     5.929
    21   8 O        1.696    -0.352    19.922     6.026
    22   6 C        3.742     0.111    18.831     6.191
    23   6 C        3.722     0.087    19.238     6.264
    24   6 C        3.724     0.095    19.107     6.242
    25   6 C        3.735     0.085    19.251     6.262
    26   8 O        1.652    -0.473    22.322     6.378
    27   8 O        1.698    -0.323    19.392     5.945
    28   8 O        1.653    -0.483    22.538     6.409
    29   6 C        3.732     0.069    19.505     6.304
    30   8 O        1.704    -0.268    18.444     5.798
    31   6 C        2.752     0.349    21.070     7.516
    32   8 O        0.857    -0.446    22.629     6.378
    33   6 C        2.730     0.354    20.990     7.501
    34   6 C        2.895    -0.091    30.294     9.024
    35   8 O        0.858    -0.455    22.818     6.405
    36   6 C        2.902    -0.010    28.276     8.719
    37   6 C        2.897    -0.042    29.047     8.837
    38   6 C        2.896    -0.021    28.522     8.756
    39   6 C        3.807    -0.074    21.914     6.664
    40   6 C        3.728     0.123    18.676     6.170
    41   6 C        2.896    -0.072    29.781     8.948
    42   8 O        1.652    -0.501    22.923     6.463
    43   6 C        2.899    -0.048    29.203     8.860
    44   6 C        2.899    -0.054    29.328     8.879
    45   6 C        2.896    -0.038    28.940     8.820
    46   6 C        3.806    -0.068    21.790     6.645
    47   6 C        3.801    -0.059    21.630     6.622
    48   6 C        3.800    -0.058    21.620     6.620
    49   6 C        3.799    -0.054    21.554     6.610
    50   6 C        3.750    -0.100    22.473     6.761
    51   8 O        1.656    -0.439    21.612     6.276
    52   8 O        1.657    -0.430    21.439     6.251
    53   6 C        3.630     0.223    17.464     6.017
    54   6 C        3.723     0.084    19.283     6.271
    55   6 C        3.724     0.092    19.155     6.250
    56   6 C        3.721     0.086    19.251     6.266
    57   6 C        3.740     0.090    19.162     6.246
    58   8 O        1.696    -0.351    19.905     6.024
    59   6 C        3.674     0.068    19.672     6.356
    60   8 O        1.653    -0.482    22.512     6.405
    61   8 O        1.654    -0.480    22.458     6.397
    62   8 O        1.652    -0.480    22.461     6.398
    63   8 O        1.654    -0.484    22.550     6.410
    64   6 C        2.974    -0.031    28.778     8.800
    65   6 C        2.926    -0.030    28.737     8.791
    66   6 C        2.926    -0.036    28.888     8.814
    67   6 C        2.976     0.022    27.516     8.604
    68   6 C        2.926    -0.036    28.891     8.815
    69   6 C        2.924    -0.022    28.553     8.763
    70   6 C        2.976     0.000    28.016     8.682
    71   6 C        2.925    -0.039    28.964     8.826
    72   6 C        2.925    -0.042    29.054     8.839
    73   6 C        2.972     0.019    27.571     8.613
    74   6 C        2.925    -0.040    28.995     8.830
    75   6 C        2.927    -0.038    28.936     8.822
    76   6 C        3.806    -0.062    21.691     6.630
    77   6 C        3.752    -0.111    22.688     6.793
    78   1 H        0.926     0.076     2.016     2.220
    79   1 H        0.926     0.076     2.020     2.223
    80   1 H        0.924     0.030     2.581     2.512
    81   1 H        0.923     0.058     2.226     2.333
    82   1 H        0.923     0.023     2.686     2.563
    83   1 H        0.923     0.094     1.839     2.120
    84   1 H        0.923     0.033     2.546     2.495
    85   1 H        0.924     0.014     2.824     2.628
    86   1 H        0.924     0.057     2.230     2.335
    87   1 H        0.802     0.326     0.649     1.266
    88   1 H        0.802     0.345     0.600     1.217
    89   1 H        0.924     0.053     2.286     2.364
    90   1 H        0.924     0.059     2.215     2.327
    91   1 H        0.804     0.367     0.549     1.164
    92   1 H        0.924     0.005     2.980     2.700
    93   1 H        0.923     0.030     2.593     2.518
    94   1 H        0.923     0.053     2.279     2.361
    95   1 H        0.923     0.033     2.544     2.494
    96   1 H        0.924     0.062     2.170     2.304
    97   1 H        0.802     0.350     0.587     1.204
    98   1 H        0.803     0.369     0.546     1.161
    99   1 H        0.924     0.079     1.985     2.203
   100   1 H        0.924     0.106     1.735     2.060
   101   1 H        0.926     0.102     1.763     2.076
   102   1 H        0.926     0.081     1.968     2.194
   103   1 H        0.926     0.075     2.036     2.231
   104   1 H        0.926     0.062     2.177     2.307
   105   1 H        0.924     0.071     2.075     2.252
   106   1 H        0.924     0.072     2.064     2.247
   107   1 H        0.923     0.025     2.653     2.547
   108   1 H        0.926     0.057     2.234     2.337
   109   1 H        0.804     0.343     0.606     1.223
   110   1 H        0.926     0.045     2.384     2.415
   111   1 H        0.926     0.049     2.334     2.389
   112   1 H        0.926     0.014     2.827     2.629
   113   1 H        0.924     0.056     2.246     2.344
   114   1 H        0.924     0.050     2.319     2.381
   115   1 H        0.924     0.028     2.620     2.531
   116   1 H        0.924     0.031     2.571     2.507
   117   1 H        0.924     0.031     2.570     2.507
   118   1 H        0.924     0.029     2.594     2.519
   119   1 H        0.924     0.039     2.466     2.456
   120   1 H        0.923     0.028     2.615     2.529
   121   1 H        0.924     0.037     2.485     2.465
   122   1 H        0.924     0.035     2.522     2.484
   123   1 H        0.924     0.020     2.730     2.584
   124   1 H        0.803     0.345     0.601     1.218
   125   1 H        0.804     0.361     0.563     1.179
   126   1 H        0.923     0.060     2.197     2.318
   127   1 H        0.924     0.040     2.446     2.446
   128   1 H        0.923     0.042     2.427     2.437
   129   1 H        0.923     0.060     2.195     2.317
   130   1 H        0.923     0.047     2.363     2.404
   131   1 H        0.924     0.057     2.236     2.339
   132   1 H        0.924     0.076     2.019     2.222
   133   1 H        0.803     0.367     0.550     1.165
   134   1 H        0.804     0.365     0.554     1.169
   135   1 H        0.802     0.341     0.609     1.226
   136   1 H        0.803     0.354     0.580     1.196
   137   1 H        0.926     0.049     2.335     2.390
   138   1 H        0.926     0.062     2.181     2.310
   139   1 H        0.926     0.064     2.154     2.295
   140   1 H        0.926     0.063     2.165     2.301
   141   1 H        0.926     0.044     2.396     2.420
   142   1 H        0.926     0.046     2.372     2.409
   143   1 H        0.926     0.042     2.416     2.431
   144   1 H        0.926     0.033     2.550     2.497
   145   1 H        0.924     0.041     2.441     2.444
   146   1 H        0.924     0.042     2.427     2.436
   147   1 H        0.924     0.041     2.429     2.437
   148   1 H        0.924     0.036     2.500     2.473
   149   1 H        0.924     0.054     2.274     2.358

 Mol. C6AA /au·bohr⁶  :     220342.695929
 Mol. C8AA /au·bohr⁸  :    5052837.400900
 Mol. α(0) /au        :        709.617359


Wiberg/Mayer (AO) data.
largest (>0.10) Wiberg bond orders for each atom

 ---------------------------------------------------------------------------
     #   Z sym  total        # sym  WBO       # sym  WBO       # sym  WBO
 ---------------------------------------------------------------------------
     1   6 C    3.944 --     6 C    1.387     2 C    1.334    51 O    1.076
     2   6 C    3.967 --     3 C    1.385     1 C    1.334     7 C    0.990
     3   6 C    3.986 --     4 C    1.430     2 C    1.385    13 C    0.999
     4   6 C    3.983 --     3 C    1.430     5 C    1.360    78 H    0.963
     5   6 C    3.946 --     6 C    1.382     4 C    1.360    52 O    1.076
     6   6 C    3.977 --     1 C    1.387     5 C    1.382    79 H    0.961
     7   6 C    3.936 --     2 C    0.990    80 H    0.951    12 O    0.947
                             8 C    0.946
     8   6 C    3.953 --    15 O    0.993     9 C    0.966    81 H    0.958
                             7 C    0.946
     9   6 C    3.936 --    10 C    0.967     8 C    0.966    82 H    0.948
                            17 O    0.944
    10   6 C    3.934 --     9 C    0.967    16 O    0.960    11 C    0.960
                            83 H    0.950
    11   6 C    3.949 --    18 C    0.988    12 O    0.963    10 C    0.960
                            84 H    0.951
    12   8 O    2.080 --    11 C    0.963     7 C    0.947
    13   6 C    3.960 --     3 C    0.999    14 O    0.993    86 H    0.967
                            85 H    0.948
    14   8 O    1.933 --    13 C    0.993    87 H    0.846
    15   8 O    1.955 --     8 C    0.993    88 H    0.825
    16   8 O    2.115 --    20 C    0.989    10 C    0.960
    17   8 O    2.253 --    33 C    1.062     9 C    0.944    35 O    0.141
    18   6 C    3.960 --    19 O    1.007    11 C    0.988    90 H    0.965
                            89 H    0.964
    19   8 O    1.912 --    18 C    1.007    91 H    0.851
    20   6 C    3.932 --    16 O    0.989    21 O    0.959    25 C    0.954
                            92 H    0.940
    21   8 O    2.057 --    20 C    0.959    22 C    0.952
    22   6 C    3.939 --    29 C    0.982    23 C    0.967    93 H    0.955
                            21 O    0.952
    23   6 C    3.966 --    28 O    1.008    22 C    0.967    24 C    0.962
                            94 H    0.954
    24   6 C    3.965 --    26 O    1.003    25 C    0.967    23 C    0.962
                            95 H    0.949
    25   6 C    3.944 --    24 C    0.967    27 O    0.961    20 C    0.954
                            96 H    0.950
    26   8 O    1.947 --    24 C    1.003    97 H    0.823
    27   8 O    2.117 --    53 C    0.981    25 C    0.961
    28   8 O    1.923 --    23 C    1.008    98 H    0.839
    29   6 C    3.929 --    22 C    0.982    30 O    0.966    99 H    0.960
                           100 H    0.960
    30   8 O    2.285 --    31 C    1.088    29 C    0.966    32 O    0.154
    31   6 C    3.899 --    32 O    1.702    30 O    1.088    64 C    1.022
    32   8 O    2.004 --    31 C    1.702    30 O    0.154
    33   6 C    3.895 --    35 O    1.654    34 C    1.075    17 O    1.062
    34   6 C    3.964 --    36 C    1.723    33 C    1.075   101 H    0.951
                            38 C    0.108
    35   8 O    2.001 --    33 C    1.654    17 O    0.141
    36   6 C    3.971 --    34 C    1.723    37 C    1.152   102 H    0.943
    37   6 C    3.985 --    38 C    1.787    36 C    1.152   103 H    0.956
    38   6 C    3.961 --    37 C    1.787    39 C    1.042   104 H    0.955
                            34 C    0.108
    39   6 C    3.983 --    38 C    1.042   106 H    0.967   105 H    0.959
                            40 C    0.944
    40   6 C    3.945 --    41 C    1.008    42 O    0.976   107 H    0.958
                            39 C    0.944
    41   6 C    3.977 --    43 C    1.829    40 C    1.008   108 H    0.963
                            45 C    0.129
    42   8 O    1.912 --    40 C    0.976   109 H    0.868
    43   6 C    3.989 --    41 C    1.829    44 C    1.125   110 H    0.953
    44   6 C    3.989 --    45 C    1.825    43 C    1.125   111 H    0.962
    45   6 C    3.983 --    44 C    1.825    46 C    1.033   112 H    0.958
                            41 C    0.129
    46   6 C    3.996 --    45 C    1.033    47 C    1.003   114 H    0.964
                           113 H    0.949
    47   6 C    3.993 --    48 C    1.008    46 C    1.003   115 H    0.975
                           116 H    0.970
    48   6 C    3.996 --    47 C    1.008    49 C    1.007   118 H    0.977
                           117 H    0.977
    49   6 C    3.996 --    50 C    1.021    48 C    1.007   120 H    0.978
                           119 H    0.972
    50   6 C    3.996 --    49 C    1.021   121 H    0.986   122 H    0.982
                           123 H    0.982
    51   8 O    2.081 --     1 C    1.076   124 H    0.829
    52   8 O    2.090 --     5 C    1.076   125 H    0.850
    53   6 C    3.914 --    27 O    0.981    58 O    0.951    54 C    0.951
                           126 H    0.945
    54   6 C    3.961 --    62 O    1.002    55 C    0.967    53 C    0.951
                           127 H    0.948
    55   6 C    3.964 --    61 O    1.003    56 C    0.968    54 C    0.967
                           128 H    0.959
    56   6 C    3.962 --    60 O    1.000    57 C    0.968    55 C    0.968
                           129 H    0.956
    57   6 C    3.931 --    59 C    0.982    56 C    0.968   130 H    0.956
                            58 O    0.940
    58   8 O    2.080 --    53 C    0.951    57 C    0.940
    59   6 C    3.960 --    63 O    1.017    57 C    0.982   132 H    0.965
                           131 H    0.962
    60   8 O    1.943 --    56 C    1.000   133 H    0.836
    61   8 O    1.934 --    55 C    1.003   134 H    0.849
    62   8 O    1.933 --    54 C    1.002   135 H    0.844
    63   8 O    1.923 --    59 C    1.017   136 H    0.834
    64   6 C    3.977 --    69 C    1.371    65 C    1.367    31 C    1.022
    65   6 C    3.989 --    66 C    1.474    64 C    1.367   137 H    0.963
    66   6 C    3.988 --    65 C    1.474    67 C    1.373   138 H    0.964
    67   6 C    3.984 --    66 C    1.373    68 C    1.368    70 C    1.056
    68   6 C    3.987 --    69 C    1.469    67 C    1.368   139 H    0.963
    69   6 C    3.986 --    68 C    1.469    64 C    1.371   140 H    0.963
    70   6 C    3.986 --    71 C    1.381    75 C    1.378    67 C    1.056
    71   6 C    3.988 --    72 C    1.461    70 C    1.381   141 H    0.967
                            74 C    0.104
    72   6 C    3.990 --    71 C    1.461    73 C    1.402   142 H    0.968
                            75 C    0.104
    73   6 C    3.978 --    74 C    1.403    72 C    1.402    76 C    1.013
    74   6 C    3.990 --    75 C    1.460    73 C    1.403   143 H    0.967
                            71 C    0.104
    75   6 C    3.988 --    74 C    1.460    70 C    1.378   144 H    0.966
                            72 C    0.104
    76   6 C    3.996 --    73 C    1.013    77 C    1.002   145 H    0.973
                           146 H    0.971
    77   6 C    3.991 --    76 C    1.002   148 H    0.987   147 H    0.985
                           149 H    0.981
    78   1 H    0.994 --     4 C    0.963
    79   1 H    0.994 --     6 C    0.961
    80   1 H    0.999 --     7 C    0.951
    81   1 H    0.997 --     8 C    0.958
    82   1 H    0.999 --     9 C    0.948
    83   1 H    0.990 --    10 C    0.950
    84   1 H    0.999 --    11 C    0.951
    85   1 H    0.999 --    13 C    0.948
    86   1 H    0.996 --    13 C    0.967
    87   1 H    0.894 --    14 O    0.846
    88   1 H    0.881 --    15 O    0.825
    89   1 H    0.997 --    18 C    0.964
    90   1 H    0.996 --    18 C    0.965
    91   1 H    0.865 --    19 O    0.851
    92   1 H    1.000 --    20 C    0.940
    93   1 H    0.999 --    22 C    0.955
    94   1 H    0.997 --    23 C    0.954
    95   1 H    0.999 --    24 C    0.949
    96   1 H    0.996 --    25 C    0.950
    97   1 H    0.877 --    26 O    0.823
    98   1 H    0.864 --    28 O    0.839
    99   1 H    0.993 --    29 C    0.960
   100   1 H    0.988 --    29 C    0.960
   101   1 H    0.989 --    34 C    0.951
   102   1 H    0.993 --    36 C    0.943
   103   1 H    0.994 --    37 C    0.956
   104   1 H    0.996 --    38 C    0.955
   105   1 H    0.990 --    39 C    0.959
   106   1 H    0.994 --    39 C    0.967
   107   1 H    0.999 --    40 C    0.958
   108   1 H    0.997 --    41 C    0.963
   109   1 H    0.881 --    42 O    0.868
   110   1 H    0.998 --    43 C    0.953
   111   1 H    0.997 --    44 C    0.962
   112   1 H    1.000 --    45 C    0.958
   113   1 H    0.989 --    46 C    0.949
   114   1 H    0.997 --    46 C    0.964
   115   1 H    0.999 --    47 C    0.975
   116   1 H    0.999 --    47 C    0.970
   117   1 H    0.999 --    48 C    0.977
   118   1 H    0.999 --    48 C    0.977
   119   1 H    0.998 --    49 C    0.972
   120   1 H    0.999 --    49 C    0.978
   121   1 H    0.999 --    50 C    0.986
   122   1 H    0.999 --    50 C    0.982
   123   1 H    1.000 --    50 C    0.982
   124   1 H    0.881 --    51 O    0.829
   125   1 H    0.869 --    52 O    0.850
   126   1 H    0.996 --    53 C    0.945
   127   1 H    0.998 --    54 C    0.948
   128   1 H    0.998 --    55 C    0.959
   129   1 H    0.996 --    56 C    0.956
   130   1 H    0.998 --    57 C    0.956
   131   1 H    0.996 --    59 C    0.962
   132   1 H    0.994 --    59 C    0.965
   133   1 H    0.865 --    60 O    0.836
   134   1 H    0.866 --    61 O    0.849
   135   1 H    0.883 --    62 O    0.844
   136   1 H    0.875 --    63 O    0.834
   137   1 H    0.997 --    65 C    0.963
   138   1 H    0.996 --    66 C    0.964
   139   1 H    0.995 --    68 C    0.963
   140   1 H    0.995 --    69 C    0.963
   141   1 H    0.998 --    71 C    0.967
   142   1 H    0.997 --    72 C    0.968
   143   1 H    0.998 --    74 C    0.967
   144   1 H    0.999 --    75 C    0.966
   145   1 H    0.998 --    76 C    0.973
   146   1 H    0.998 --    76 C    0.971
   147   1 H    0.997 --    77 C    0.985
   148   1 H    0.999 --    77 C    0.987
   149   1 H    0.997 --    77 C    0.981
 ---------------------------------------------------------------------------

Topologies differ in total number of bonds
Writing topology from bond orders to xtbtopo.mol

molecular dipole:
                 x           y           z       tot (Debye)
 q only:        0.922      -3.002      -0.181
   full:        1.429      -3.279      -0.342       9.132
molecular quadrupole (traceless):
                xx          xy          yy          xz          yz          zz
 q only:       40.757       6.620      -8.759      19.908      -0.362     -31.997
  q+dip:       15.835       1.874       9.813      26.038      -3.090     -25.648
   full:       13.950       4.053       5.669      26.742      -3.006     -19.619


           -------------------------------------------------
          | TOTAL ENERGY             -242.093182322947 Eh   |
          | GRADIENT NORM               0.119503109018 Eh/α |
          | HOMO-LUMO GAP               1.738088206513 eV   |
           -------------------------------------------------

------------------------------------------------------------------------
 * finished run on 2026/06/19 at 18:52:48.491     
------------------------------------------------------------------------
 total:
 * wall-time:     0 d,  0 h,  0 min,  0.352 sec
 *  cpu-time:     0 d,  0 h,  0 min,  5.380 sec
 * ratio c/w:    15.290 speedup
 SCF:
 * wall-time:     0 d,  0 h,  0 min,  0.274 sec
 *  cpu-time:     0 d,  0 h,  0 min,  4.308 sec
 * ratio c/w:    15.747 speedup

normal termination of xtb
