      -----------------------------------------------------------      
     |                   =====================                   |     
     |                           x T B                           |     
     |                   =====================                   |     
     |                         S. Grimme                         |     
     |          Mulliken Center for Theoretical Chemistry        |     
     |                    University of Bonn                     |     
      -----------------------------------------------------------      

   * xtb version 6.7.1 (edcfbbe) compiled by 'albert@albert-system' on 2024-07-22

   xtb is free software: you can redistribute it and/or modify it under
   the terms of the GNU Lesser General Public License as published by
   the Free Software Foundation, either version 3 of the License, or
   (at your option) any later version.
   
   xtb is distributed in the hope that it will be useful,
   but WITHOUT ANY WARRANTY; without even the implied warranty of
   MERCHANTABILITY or FITNESS FOR A PARTICULAR PURPOSE.  See the
   GNU Lesser General Public License for more details.
   
   Cite this work as:
   * C. Bannwarth, E. Caldeweyher, S. Ehlert, A. Hansen, P. Pracht,
     J. Seibert, S. Spicher, S. Grimme, WIREs Comput. Mol. Sci., 2020, 11,
     e01493. DOI: 10.1002/wcms.1493
   
   for GFN2-xTB:
   * C. Bannwarth, S. Ehlert and S. Grimme., J. Chem. Theory Comput., 2019,
     15, 1652-1671. DOI: 10.1021/acs.jctc.8b01176
   for GFN1-xTB:
   * S. Grimme, C. Bannwarth, P. Shushkov, J. Chem. Theory Comput., 2017,
     13, 1989-2009. DOI: 10.1021/acs.jctc.7b00118
   for GFN0-xTB:
   * P. Pracht, E. Caldeweyher, S. Ehlert, S. Grimme, ChemRxiv, 2019, preprint.
     DOI: 10.26434/chemrxiv.8326202.v1
   for GFN-FF:
   * S. Spicher and S. Grimme, Angew. Chem. Int. Ed., 2020, 59, 15665-15673.
     DOI: 10.1002/anie.202004239
   
   for ALPB and GBSA implicit solvation:
   * S. Ehlert, M. Stahn, S. Spicher, S. Grimme, J. Chem. Theory Comput.,
     2021, 17, 4250-4261. DOI: 10.1021/acs.jctc.1c00471
   
   for ddCOSMO and CPCM-X implicit solvation:
   * M. Stahn, S. Ehlert, S. Grimme, J. Phys. Chem. A,
     2023, XX, XXXX-XXXX. DOI: 10.1021/acs.jpca.3c04382
   
   for DFT-D4:
   * E. Caldeweyher, C. Bannwarth and S. Grimme, J. Chem. Phys., 2017,
     147, 034112. DOI: 10.1063/1.4993215
   * E. Caldeweyher, S. Ehlert, A. Hansen, H. Neugebauer, S. Spicher,
     C. Bannwarth and S. Grimme, J. Chem. Phys., 2019, 150, 154122.
     DOI: 10.1063/1.5090222
   * E. Caldeweyher, J.-M. Mewes, S. Ehlert and S. Grimme, Phys. Chem. Chem. Phys.
     2020, 22, 8499-8512. DOI: 10.1039/D0CP00502A
   
   for sTDA-xTB:
   * S. Grimme and C. Bannwarth, J. Chem. Phys., 2016, 145, 054103.
     DOI: 10.1063/1.4959605
   
   in the mass-spec context:
   * V. Asgeirsson, C. Bauer and S. Grimme, Chem. Sci., 2017, 8, 4879.
     DOI: 10.1039/c7sc00601b
   * J. Koopman and S. Grimme, ACS Omega 2019, 4, 12, 15120-15133.
     DOI: 10.1021/acsomega.9b02011
   
   for metadynamics refer to:
   * S. Grimme, J. Chem. Theory Comput., 2019, 155, 2847-2862
     DOI: 10.1021/acs.jctc.9b00143
   
   for SPH calculations refer to:
   * S. Spicher and S. Grimme, J. Chem. Theory Comput., 2021, 17, 1701-1714
     DOI: 10.1021/acs.jctc.0c01306
   
   for ONIOM refer to:
   * C. Plett, A. Katbashev, S. Ehlert, S. Grimme, M. Bursch,
     Phys. Chem. Chem. Phys., 2023, 25, 17860-17868. DOI: 10.1039/D3CP02178E
   
   for DIPRO refer to:
   * J. Kohn, N. Gildemeister, S. Grimme, D. Fazzi, A. Hansen,
     J. Chem. Phys., 2023, just accepted.
   
   for PTB refer to:
   * S. Grimme, M. Mueller, A. Hansen, J. Chem. Phys., 2023, 158, 124111.
     DOI: 10.1063/5.0137838
   
   with help from (in alphabetical order)
   P. Atkinson, C. Bannwarth, F. Bohle, G. Brandenburg, E. Caldeweyher
   M. Checinski, S. Dohm, S. Ehlert, S. Ehrlich, I. Gerasimov, C. Hölzer
   A. Katbashev, J. Kohn, J. Koopman, C. Lavigne, S. Lehtola, F. März, M. Müller,
   F. Musil, H. Neugebauer, J. Pisarek, C. Plett, P. Pracht, F. Pultar,
   J. Seibert, P. Shushkov, S. Spicher, M. Stahn, M. Steiner, T. Strunk,
   J. Stückrath, T. Rose, and J. Unsleber
   
 * started run on 2026/06/19 at 18:52:47.118     
   ID    Z sym.   atoms
    1    6 C      1-11, 13, 18, 20, 22-25, 29, 31, 33, 34, 36-41, 43-50,
                  53-57, 59, 64-77
    2    8 O      12, 14-17, 19, 21, 26-28, 30, 32, 35, 42, 51, 52, 58, 60-63
    3    1 H      78-149

           -------------------------------------------------
          |                Calculation Setup                |
           -------------------------------------------------

          program call               : xtb PAPU-0083/conf03.xyz --gfn 2 --alpb water --chrg 0 --uhf 0 --namespace PAPU-0083/conf03_water
          hostname                   : cpu10
          calculation namespace      : PAPU-0083/conf03_water
          coordinate file            : PAPU-0083/conf03.xyz
          omp threads                :                    16


           -------------------------------------------------
          |                 G F N 2 - x T B                 |
           -------------------------------------------------

        Reference                      10.1021/acs.jctc.8b01176
      * Hamiltonian:
        H0-scaling (s, p, d)           1.850000    2.230000    2.230000
        zeta-weighting                 0.500000
      * Dispersion:
        s8                             2.700000
        a1                             0.520000
        a2                             5.000000
        s9                             5.000000
      * Repulsion:
        kExp                           1.500000    1.000000
        rExp                           1.000000
      * Coulomb:
        alpha                          2.000000
        third order                    shell-resolved
        anisotropic                    true
        a3                             3.000000
        a5                             4.000000
        cn-shift                       1.200000
        cn-exp                         4.000000
        max-rad                        5.000000

      * Solvation model:               ALPB
        Solvent                        water
        Parameter file                 internal GFN2-xTB/ALPB
        Dielectric constant                8.0200E+01
        Reference state                gsolv [1 M gas/solution]
        Free energy shift                  1.0808E-03 Eh       6.7819E-01 kcal/mol
        Temperature                        2.9815E+02 K
        Density                            1.0000E+00 kg/L
        Solvent mass                       1.8000E+01 g/mol
        Interaction kernel             P16
        Born radius scaling (c1)           1.4744E+00
        Born radii integrator          GBOBC
        Born offset                        0.0000E+00 a0       0.0000E+00 AA
        H-bond correction              true
        Ion screening                  false
        Surface tension                    1.0000E-05 Eh       1.5569E+01 dyn/cm
        Grid points                               230 per atom

          ...................................................
          :                      SETUP                      :
          :.................................................:
          :  # basis functions                 380          :
          :  # atomic orbitals                 380          :
          :  # shells                          226          :
          :  # electrons                       422          :
          :  max. iterations                   250          :
          :  Hamiltonian                  GFN2-xTB          :
          :  restarted?                      false          :
          :  GBSA solvation                   true          :
          :  PC potential                    false          :
          :  electronic temp.          300.0000000     K    :
          :  accuracy                    1.0000000          :
          :  -> integral cutoff          0.2500000E+02      :
          :  -> integral neglect         0.1000000E-07      :
          :  -> SCF convergence          0.1000000E-05 Eh   :
          :  -> wf. convergence          0.1000000E-03 e    :
          :  Broyden damping             0.4000000          :
          :  net charge                          0          :
          :  unpaired electrons                  0          :
          ...................................................

 iter      E             dE          RMSdq      gap      omega  full diag
   1   -244.5198516 -0.244520E+03  0.443E+00    2.52       0.0  T
   2   -244.7614577 -0.241606E+00  0.242E+00    2.02       1.0  T
   3   -244.7406184  0.208394E-01  0.103E+00    2.09       1.0  T
   4   -244.7812493 -0.406309E-01  0.347E-01    1.86       1.0  T
   5   -244.7895227 -0.827345E-02  0.139E-01    1.87       1.0  T
   6   -244.7903936 -0.870893E-03  0.708E-02    1.87       1.0  T
   7   -244.7905414 -0.147802E-03  0.334E-02    1.89       1.0  T
   8   -244.7905851 -0.436338E-04  0.154E-02    1.89       1.0  T
   9   -244.7905942 -0.917440E-05  0.835E-03    1.89       1.0  T
  10   -244.7905968 -0.261537E-05  0.494E-03    1.89       1.7  T
  11   -244.7905981 -0.122442E-05  0.243E-03    1.89       3.4  T
  12   -244.7905983 -0.246337E-06  0.912E-04    1.89       9.0  T
  13   -244.7905983 -0.332710E-07  0.452E-04    1.89      18.1  T

   *** convergence criteria satisfied after 13 iterations ***

         #    Occupation            Energy/Eh            Energy/eV
      -------------------------------------------------------------
         1        2.0000           -0.7715762             -20.9957
       ...           ...                  ...                  ...
       205        2.0000           -0.4051206             -11.0239
       206        2.0000           -0.4048058             -11.0153
       207        2.0000           -0.4030383             -10.9672
       208        2.0000           -0.4001842             -10.8896
       209        2.0000           -0.3866440             -10.5211
       210        2.0000           -0.3844702             -10.4620
       211        2.0000           -0.3797066             -10.3323 (HOMO)
       212                         -0.3102414              -8.4421 (LUMO)
       213                         -0.2900728              -7.8933
       214                         -0.2458589              -6.6902
       215                         -0.2367523              -6.4424
       216                         -0.2349298              -6.3928
       ...                                ...                  ...
       380                          0.6906686              18.7940
      -------------------------------------------------------------
                  HL-Gap            0.0694652 Eh            1.8902 eV
             Fermi-level           -0.3449740 Eh           -9.3872 eV

 SCC (total)                   0 d,  0 h,  0 min,  0.274 sec
 SCC setup                      ...        0 min,  0.004 sec (  1.382%)
 Dispersion                     ...        0 min,  0.004 sec (  1.621%)
 classical contributions        ...        0 min,  0.000 sec (  0.060%)
 integral evaluation            ...        0 min,  0.012 sec (  4.456%)
 iterations                     ...        0 min,  0.211 sec ( 77.095%)
 molecular gradient             ...        0 min,  0.040 sec ( 14.593%)
 printout                       ...        0 min,  0.002 sec (  0.778%)

         :::::::::::::::::::::::::::::::::::::::::::::::::::::
         ::                     SUMMARY                     ::
         :::::::::::::::::::::::::::::::::::::::::::::::::::::
         :: total energy            -242.080197412784 Eh    ::
         :: total w/o Gsasa/hb      -242.050685191268 Eh    ::
         :: gradient norm              0.117954530677 Eh/a0 ::
         :: HOMO-LUMO gap              1.890244201974 eV    ::
         ::.................................................::
         :: SCC energy              -244.776196253667 Eh    ::
         :: -> isotropic ES            0.543276167370 Eh    ::
         :: -> anisotropic ES         -0.021867200665 Eh    ::
         :: -> anisotropic XC          0.026791766825 Eh    ::
         :: -> dispersion             -0.202967297101 Eh    ::
         :: -> Gsolv                  -0.080882532150 Eh    ::
         ::    -> Gelec               -0.051370310635 Eh    ::
         ::    -> Gsasa                0.008428323685 Eh    ::
         ::    -> Ghb                 -0.039021304898 Eh    ::
         ::    -> Gshift               0.001080759698 Eh    ::
         :: repulsion energy           2.695998840883 Eh    ::
         :: add. restraining           0.000000000000 Eh    ::
         :: total charge              -0.000000000000 e     ::
         :::::::::::::::::::::::::::::::::::::::::::::::::::::

           -------------------------------------------------
          |                Property Printout                |
           -------------------------------------------------

    * Orbital Energies and Occupations

         #    Occupation            Energy/Eh            Energy/eV
      -------------------------------------------------------------
         1        2.0000           -0.7715762             -20.9957
       ...           ...                  ...                  ...
       199        2.0000           -0.4201212             -11.4321
       200        2.0000           -0.4183805             -11.3847
       201        2.0000           -0.4169994             -11.3471
       202        2.0000           -0.4168426             -11.3429
       203        2.0000           -0.4134064             -11.2494
       204        2.0000           -0.4115474             -11.1988
       205        2.0000           -0.4051206             -11.0239
       206        2.0000           -0.4048058             -11.0153
       207        2.0000           -0.4030383             -10.9672
       208        2.0000           -0.4001842             -10.8896
       209        2.0000           -0.3866440             -10.5211
       210        2.0000           -0.3844702             -10.4620
       211        2.0000           -0.3797066             -10.3323 (HOMO)
       212                         -0.3102414              -8.4421 (LUMO)
       213                         -0.2900728              -7.8933
       214                         -0.2458589              -6.6902
       215                         -0.2367523              -6.4424
       216                         -0.2349298              -6.3928
       217                         -0.2320327              -6.3139
       218                         -0.2293631              -6.2413
       219                         -0.2257120              -6.1419
       220                         -0.2185458              -5.9469
       221                         -0.1872746              -5.0960
       222                         -0.1605219              -4.3680
       ...                                ...                  ...
       380                          0.6906686              18.7940
      -------------------------------------------------------------
                  HL-Gap            0.0694652 Eh            1.8902 eV
             Fermi-level           -0.3449740 Eh           -9.3872 eV

     #   Z          covCN         q      C6AA      α(0)
     1   6 C        2.842     0.141    24.924     8.182
     2   6 C        2.969    -0.048    29.188     8.862
     3   6 C        2.964    -0.003    28.102     8.695
     4   6 C        2.929    -0.068    29.706     8.938
     5   6 C        2.837     0.148    24.780     8.158
     6   6 C        2.919    -0.098    30.478     9.053
     7   6 C        3.735     0.106    18.923     6.208
     8   6 C        3.721     0.098    19.072     6.237
     9   6 C        3.762     0.108    18.858     6.190
    10   6 C        3.746     0.094    19.094     6.233
    11   6 C        3.733     0.101    19.005     6.222
    12   8 O        1.692    -0.348    19.862     6.017
    13   6 C        3.683     0.083    19.394     6.306
    14   8 O        1.652    -0.494    22.764     6.441
    15   8 O        1.651    -0.490    22.677     6.428
    16   8 O        1.698    -0.317    19.291     5.930
    17   8 O        1.702    -0.286    18.757     5.847
    18   6 C        3.676     0.075    19.546     6.334
    19   8 O        1.654    -0.485    22.573     6.414
    20   6 C        3.635     0.249    17.096     5.950
    21   8 O        1.696    -0.355    19.991     6.037
    22   6 C        3.741     0.113    18.806     6.187
    23   6 C        3.722     0.092    19.156     6.250
    24   6 C        3.722     0.098    19.061     6.235
    25   6 C        3.732     0.094    19.109     6.239
    26   8 O        1.652    -0.478    22.432     6.394
    27   8 O        1.697    -0.337    19.655     5.986
    28   8 O        1.653    -0.495    22.775     6.442
    29   6 C        3.732     0.070    19.491     6.301
    30   8 O        1.704    -0.269    18.452     5.800
    31   6 C        2.752     0.346    21.121     7.526
    32   8 O        0.857    -0.470    23.135     6.449
    33   6 C        2.732     0.356    20.960     7.495
    34   6 C        2.898    -0.078    29.960     8.974
    35   8 O        0.858    -0.477    23.280     6.469
    36   6 C        2.899    -0.000    28.032     8.681
    37   6 C        2.901    -0.039    28.964     8.824
    38   6 C        2.894    -0.020    28.500     8.753
    39   6 C        3.806    -0.082    22.060     6.686
    40   6 C        3.728     0.121    18.698     6.173
    41   6 C        2.894    -0.067    29.666     8.930
    42   8 O        1.652    -0.509    23.081     6.485
    43   6 C        2.899    -0.038    28.943     8.821
    44   6 C        2.897    -0.052    29.288     8.873
    45   6 C        2.895    -0.042    29.044     8.836
    46   6 C        3.805    -0.064    21.728     6.636
    47   6 C        3.801    -0.052    21.513     6.604
    48   6 C        3.799    -0.061    21.676     6.629
    49   6 C        3.798    -0.051    21.490     6.601
    50   6 C        3.750    -0.106    22.589     6.778
    51   8 O        1.656    -0.434    21.511     6.261
    52   8 O        1.657    -0.442    21.674     6.285
    53   6 C        3.629     0.232    17.349     5.998
    54   6 C        3.723     0.089    19.203     6.258
    55   6 C        3.724     0.101    19.024     6.228
    56   6 C        3.722     0.094    19.136     6.247
    57   6 C        3.738     0.101    18.998     6.219
    58   8 O        1.695    -0.360    20.074     6.049
    59   6 C        3.674     0.071    19.612     6.346
    60   8 O        1.653    -0.493    22.740     6.437
    61   8 O        1.654    -0.495    22.787     6.444
    62   8 O        1.652    -0.480    22.477     6.400
    63   8 O        1.654    -0.498    22.859     6.454
    64   6 C        2.974    -0.029    28.721     8.791
    65   6 C        2.926    -0.025    28.626     8.774
    66   6 C        2.926    -0.034    28.849     8.808
    67   6 C        2.976     0.023    27.489     8.600
    68   6 C        2.926    -0.034    28.843     8.807
    69   6 C        2.924    -0.020    28.510     8.756
    70   6 C        2.975     0.001    27.999     8.680
    71   6 C        2.927    -0.036    28.896     8.815
    72   6 C        2.925    -0.038    28.946     8.823
    73   6 C        2.973     0.018    27.599     8.617
    74   6 C        2.925    -0.042    29.042     8.838
    75   6 C        2.925    -0.038    28.943     8.823
    76   6 C        3.806    -0.062    21.688     6.630
    77   6 C        3.752    -0.107    22.605     6.780
    78   1 H        0.926     0.064     2.150     2.293
    79   1 H        0.926     0.078     2.005     2.214
    80   1 H        0.924     0.031     2.575     2.510
    81   1 H        0.923     0.062     2.176     2.307
    82   1 H        0.924     0.033     2.540     2.492
    83   1 H        0.923     0.100     1.789     2.092
    84   1 H        0.923     0.026     2.641     2.541
    85   1 H        0.924     0.015     2.816     2.624
    86   1 H        0.924     0.051     2.312     2.378
    87   1 H        0.802     0.327     0.645     1.262
    88   1 H        0.803     0.342     0.607     1.224
    89   1 H        0.924     0.078     2.003     2.213
    90   1 H        0.924     0.051     2.302     2.373
    91   1 H        0.803     0.360     0.566     1.182
    92   1 H        0.924     0.007     2.935     2.679
    93   1 H        0.923     0.030     2.580     2.512
    94   1 H        0.923     0.051     2.306     2.375
    95   1 H        0.923     0.043     2.408     2.427
    96   1 H        0.924     0.069     2.091     2.262
    97   1 H        0.802     0.346     0.599     1.216
    98   1 H        0.803     0.378     0.527     1.140
    99   1 H        0.924     0.079     1.986     2.204
   100   1 H        0.924     0.107     1.724     2.053
   101   1 H        0.926     0.092     1.860     2.133
   102   1 H        0.926     0.082     1.963     2.191
   103   1 H        0.926     0.069     2.093     2.262
   104   1 H        0.926     0.056     2.246     2.344
   105   1 H        0.924     0.072     2.059     2.244
   106   1 H        0.924     0.071     2.076     2.253
   107   1 H        0.923     0.039     2.468     2.457
   108   1 H        0.926     0.058     2.223     2.331
   109   1 H        0.804     0.355     0.577     1.194
   110   1 H        0.926     0.029     2.596     2.519
   111   1 H        0.926     0.047     2.355     2.400
   112   1 H        0.926     0.033     2.537     2.491
   113   1 H        0.924     0.050     2.315     2.379
   114   1 H        0.924     0.050     2.317     2.381
   115   1 H        0.924    -0.002     3.094     2.751
   116   1 H        0.924     0.041     2.437     2.442
   117   1 H        0.924     0.037     2.485     2.465
   118   1 H        0.924     0.029     2.608     2.525
   119   1 H        0.924     0.020     2.732     2.585
   120   1 H        0.923     0.030     2.593     2.518
   121   1 H        0.924     0.037     2.494     2.470
   122   1 H        0.924     0.033     2.545     2.495
   123   1 H        0.925     0.036     2.497     2.471
   124   1 H        0.803     0.343     0.604     1.221
   125   1 H        0.804     0.377     0.529     1.143
   126   1 H        0.924     0.059     2.211     2.325
   127   1 H        0.923     0.041     2.432     2.439
   128   1 H        0.923     0.038     2.476     2.461
   129   1 H        0.923     0.058     2.224     2.332
   130   1 H        0.923     0.041     2.442     2.444
   131   1 H        0.924     0.057     2.233     2.337
   132   1 H        0.924     0.069     2.094     2.263
   133   1 H        0.803     0.375     0.533     1.146
   134   1 H        0.804     0.376     0.532     1.145
   135   1 H        0.802     0.334     0.626     1.243
   136   1 H        0.803     0.359     0.567     1.183
   137   1 H        0.926     0.054     2.273     2.358
   138   1 H        0.926     0.064     2.152     2.294
   139   1 H        0.926     0.061     2.189     2.314
   140   1 H        0.926     0.054     2.270     2.356
   141   1 H        0.926     0.034     2.526     2.485
   142   1 H        0.926     0.045     2.388     2.416
   143   1 H        0.926     0.043     2.410     2.428
   144   1 H        0.926     0.042     2.426     2.436
   145   1 H        0.924     0.040     2.456     2.451
   146   1 H        0.924     0.043     2.406     2.425
   147   1 H        0.924     0.050     2.322     2.383
   148   1 H        0.924     0.042     2.419     2.432
   149   1 H        0.924     0.034     2.533     2.489

 Mol. C6AA /au·bohr⁶  :     220440.427106
 Mol. C8AA /au·bohr⁸  :    5053707.776907
 Mol. α(0) /au        :        709.733609


Wiberg/Mayer (AO) data.
largest (>0.10) Wiberg bond orders for each atom

 ---------------------------------------------------------------------------
     #   Z sym  total        # sym  WBO       # sym  WBO       # sym  WBO
 ---------------------------------------------------------------------------
     1   6 C    3.945 --     6 C    1.389     2 C    1.334    51 O    1.076
     2   6 C    3.969 --     3 C    1.387     1 C    1.334     7 C    0.990
     3   6 C    3.987 --     4 C    1.430     2 C    1.387    13 C    1.000
     4   6 C    3.984 --     3 C    1.430     5 C    1.359    78 H    0.965
     5   6 C    3.946 --     6 C    1.380     4 C    1.359    52 O    1.079
     6   6 C    3.977 --     1 C    1.389     5 C    1.380    79 H    0.961
     7   6 C    3.937 --     2 C    0.990    80 H    0.951     8 C    0.948
                            12 O    0.945
     8   6 C    3.951 --    15 O    0.990     9 C    0.967    81 H    0.957
                             7 C    0.948
     9   6 C    3.934 --    10 C    0.968     8 C    0.967    82 H    0.946
                            17 O    0.944
    10   6 C    3.931 --     9 C    0.968    11 C    0.962    16 O    0.958
                            83 H    0.949
    11   6 C    3.945 --    18 C    0.978    10 C    0.962    12 O    0.961
                            84 H    0.954
    12   8 O    2.076 --    11 C    0.961     7 C    0.945
    13   6 C    3.958 --     3 C    1.000    14 O    0.990    86 H    0.967
                            85 H    0.951
    14   8 O    1.926 --    13 C    0.990    87 H    0.844
    15   8 O    1.953 --     8 C    0.990    88 H    0.827
    16   8 O    2.120 --    20 C    0.983    10 C    0.958
    17   8 O    2.268 --    33 C    1.082     9 C    0.944    35 O    0.142
    18   6 C    3.955 --    19 O    1.014    11 C    0.978    90 H    0.963
                            89 H    0.961
    19   8 O    1.929 --    18 C    1.014    91 H    0.855
    20   6 C    3.928 --    16 O    0.983    21 O    0.958    25 C    0.955
                            92 H    0.941
    21   8 O    2.060 --    20 C    0.958    22 C    0.951
    22   6 C    3.939 --    29 C    0.983    23 C    0.968    93 H    0.953
                            21 O    0.951
    23   6 C    3.966 --    28 O    1.008    22 C    0.968    24 C    0.965
                            94 H    0.957
    24   6 C    3.963 --    26 O    1.003    25 C    0.965    23 C    0.965
                            95 H    0.951
    25   6 C    3.941 --    24 C    0.965    27 O    0.960    20 C    0.955
                            96 H    0.953
    26   8 O    1.936 --    24 C    1.003    97 H    0.828
    27   8 O    2.099 --    53 C    0.981    25 C    0.960
    28   8 O    1.914 --    23 C    1.008    98 H    0.832
    29   6 C    3.925 --    22 C    0.983    30 O    0.961    99 H    0.961
                           100 H    0.960
    30   8 O    2.289 --    31 C    1.097    29 C    0.961    32 O    0.153
    31   6 C    3.896 --    32 O    1.680    30 O    1.097    64 C    1.027
    32   8 O    1.984 --    31 C    1.680    30 O    0.153
    33   6 C    3.896 --    35 O    1.624    34 C    1.085    17 O    1.082
    34   6 C    3.967 --    36 C    1.714    33 C    1.085   101 H    0.956
                            38 C    0.112
    35   8 O    1.980 --    33 C    1.624    17 O    0.142
    36   6 C    3.970 --    34 C    1.714    37 C    1.159   102 H    0.953
    37   6 C    3.987 --    38 C    1.778    36 C    1.159   103 H    0.958
    38   6 C    3.963 --    37 C    1.778    39 C    1.042   104 H    0.957
                            34 C    0.112
    39   6 C    3.984 --    38 C    1.042   105 H    0.967   106 H    0.962
                            40 C    0.934
    40   6 C    3.943 --    41 C    1.008    42 O    0.984   107 H    0.954
                            39 C    0.934
    41   6 C    3.979 --    43 C    1.847    40 C    1.008   108 H    0.962
                            45 C    0.108
    42   8 O    1.921 --    40 C    0.984   109 H    0.858
    43   6 C    3.990 --    41 C    1.847    44 C    1.106   110 H    0.954
    44   6 C    3.989 --    45 C    1.845    43 C    1.106   111 H    0.960
    45   6 C    3.983 --    44 C    1.845    46 C    1.031   112 H    0.956
                            41 C    0.108
    46   6 C    3.996 --    45 C    1.031    47 C    1.003   114 H    0.967
                           113 H    0.949
    47   6 C    3.994 --    48 C    1.008    46 C    1.003   115 H    0.968
                           116 H    0.966
    48   6 C    3.996 --    47 C    1.008    49 C    1.006   118 H    0.977
                           117 H    0.977
    49   6 C    3.996 --    50 C    1.021    48 C    1.006   120 H    0.977
                           119 H    0.969
    50   6 C    3.995 --    49 C    1.021   121 H    0.987   122 H    0.984
                           123 H    0.977
    51   8 O    2.086 --     1 C    1.076   124 H    0.832
    52   8 O    2.080 --     5 C    1.079   125 H    0.839
    53   6 C    3.909 --    27 O    0.981    58 O    0.950    54 C    0.949
                           126 H    0.935
    54   6 C    3.959 --    62 O    0.999    55 C    0.968   127 H    0.953
                            53 C    0.949
    55   6 C    3.963 --    61 O    1.001    56 C    0.969    54 C    0.968
                           128 H    0.956
    56   6 C    3.961 --    60 O    0.999    55 C    0.969    57 C    0.968
                           129 H    0.957
    57   6 C    3.932 --    59 C    0.984    56 C    0.968   130 H    0.951
                            58 O    0.940
    58   8 O    2.072 --    53 C    0.950    57 C    0.940
    59   6 C    3.959 --    63 O    1.013    57 C    0.984   132 H    0.967
                           131 H    0.962
    60   8 O    1.936 --    56 C    0.999   133 H    0.830
    61   8 O    1.925 --    55 C    1.001   134 H    0.841
    62   8 O    1.938 --    54 C    0.999   135 H    0.840
    63   8 O    1.915 --    59 C    1.013   136 H    0.830
    64   6 C    3.976 --    69 C    1.368    65 C    1.365    31 C    1.027
    65   6 C    3.988 --    66 C    1.477    64 C    1.365   137 H    0.962
    66   6 C    3.988 --    65 C    1.477    67 C    1.371   138 H    0.963
    67   6 C    3.984 --    66 C    1.371    68 C    1.368    70 C    1.059
    68   6 C    3.988 --    69 C    1.471    67 C    1.368   139 H    0.963
    69   6 C    3.987 --    68 C    1.471    64 C    1.368   140 H    0.966
    70   6 C    3.986 --    75 C    1.380    71 C    1.377    67 C    1.059
    71   6 C    3.988 --    72 C    1.461    70 C    1.377   141 H    0.966
                            74 C    0.103
    72   6 C    3.990 --    71 C    1.461    73 C    1.402   142 H    0.967
                            75 C    0.104
    73   6 C    3.978 --    72 C    1.402    74 C    1.402    76 C    1.013
    74   6 C    3.990 --    75 C    1.461    73 C    1.402   143 H    0.968
                            71 C    0.103
    75   6 C    3.988 --    74 C    1.461    70 C    1.380   144 H    0.966
                            72 C    0.104
    76   6 C    3.996 --    73 C    1.013    77 C    1.002   145 H    0.973
                           146 H    0.971
    77   6 C    3.992 --    76 C    1.002   149 H    0.988   148 H    0.985
                           147 H    0.983
    78   1 H    0.995 --     4 C    0.965
    79   1 H    0.993 --     6 C    0.961
    80   1 H    0.999 --     7 C    0.951
    81   1 H    0.996 --     8 C    0.957
    82   1 H    0.999 --     9 C    0.946
    83   1 H    0.989 --    10 C    0.949
    84   1 H    0.999 --    11 C    0.954
    85   1 H    0.999 --    13 C    0.951
    86   1 H    0.997 --    13 C    0.967
    87   1 H    0.893 --    14 O    0.844
    88   1 H    0.883 --    15 O    0.827
    89   1 H    0.993 --    18 C    0.961
    90   1 H    0.997 --    18 C    0.963
    91   1 H    0.870 --    19 O    0.855
    92   1 H    1.000 --    20 C    0.941
    93   1 H    0.999 --    22 C    0.953
    94   1 H    0.997 --    23 C    0.957
    95   1 H    0.998 --    24 C    0.951
    96   1 H    0.995 --    25 C    0.953
    97   1 H    0.880 --    26 O    0.828
    98   1 H    0.857 --    28 O    0.832
    99   1 H    0.993 --    29 C    0.961
   100   1 H    0.988 --    29 C    0.960
   101   1 H    0.991 --    34 C    0.956
   102   1 H    0.993 --    36 C    0.953
   103   1 H    0.995 --    37 C    0.958
   104   1 H    0.997 --    38 C    0.957
   105   1 H    0.992 --    39 C    0.967
   106   1 H    0.994 --    39 C    0.962
   107   1 H    0.998 --    40 C    0.954
   108   1 H    0.996 --    41 C    0.962
   109   1 H    0.874 --    42 O    0.858
   110   1 H    0.999 --    43 C    0.954
   111   1 H    0.997 --    44 C    0.960
   112   1 H    0.999 --    45 C    0.956
   113   1 H    0.991 --    46 C    0.949
   114   1 H    0.997 --    46 C    0.967
   115   1 H    1.000 --    47 C    0.968
   116   1 H    0.998 --    47 C    0.966
   117   1 H    0.998 --    48 C    0.977
   118   1 H    0.999 --    48 C    0.977
   119   1 H    1.000 --    49 C    0.969
   120   1 H    0.999 --    49 C    0.977
   121   1 H    0.998 --    50 C    0.987
   122   1 H    0.999 --    50 C    0.984
   123   1 H    0.999 --    50 C    0.977
   124   1 H    0.882 --    51 O    0.832
   125   1 H    0.857 --    52 O    0.839
   126   1 H    0.996 --    53 C    0.935
   127   1 H    0.998 --    54 C    0.953
   128   1 H    0.999 --    55 C    0.956
   129   1 H    0.996 --    56 C    0.957
   130   1 H    0.998 --    57 C    0.951
   131   1 H    0.996 --    59 C    0.962
   132   1 H    0.995 --    59 C    0.967
   133   1 H    0.859 --    60 O    0.830
   134   1 H    0.858 --    61 O    0.841
   135   1 H    0.888 --    62 O    0.840
   136   1 H    0.871 --    63 O    0.830
   137   1 H    0.997 --    65 C    0.962
   138   1 H    0.995 --    66 C    0.963
   139   1 H    0.996 --    68 C    0.963
   140   1 H    0.997 --    69 C    0.966
   141   1 H    0.999 --    71 C    0.966
   142   1 H    0.997 --    72 C    0.967
   143   1 H    0.998 --    74 C    0.968
   144   1 H    0.998 --    75 C    0.966
   145   1 H    0.998 --    76 C    0.973
   146   1 H    0.997 --    76 C    0.971
   147   1 H    0.998 --    77 C    0.983
   148   1 H    0.997 --    77 C    0.985
   149   1 H    0.999 --    77 C    0.988
 ---------------------------------------------------------------------------

Topologies differ in total number of bonds
Writing topology from bond orders to xtbtopo.mol

molecular dipole:
                 x           y           z       tot (Debye)
 q only:        0.214      -2.302       2.706
   full:        0.442      -1.973       2.870       8.924
molecular quadrupole (traceless):
                xx          xy          yy          xz          yz          zz
 q only:       47.159      26.580     -29.602      45.888      -0.055     -17.557
  q+dip:       25.869      25.189     -12.959      57.279      -5.476     -12.911
   full:       25.157      27.959     -18.593      57.837      -3.603      -6.564


           -------------------------------------------------
          | TOTAL ENERGY             -242.080197412784 Eh   |
          | GRADIENT NORM               0.117954530677 Eh/α |
          | HOMO-LUMO GAP               1.890244201974 eV   |
           -------------------------------------------------

------------------------------------------------------------------------
 * finished run on 2026/06/19 at 18:52:47.450     
------------------------------------------------------------------------
 total:
 * wall-time:     0 d,  0 h,  0 min,  0.332 sec
 *  cpu-time:     0 d,  0 h,  0 min,  4.942 sec
 * ratio c/w:    14.869 speedup
 SCF:
 * wall-time:     0 d,  0 h,  0 min,  0.275 sec
 *  cpu-time:     0 d,  0 h,  0 min,  4.310 sec
 * ratio c/w:    15.678 speedup

normal termination of xtb
