      -----------------------------------------------------------      
     |                   =====================                   |     
     |                           x T B                           |     
     |                   =====================                   |     
     |                         S. Grimme                         |     
     |          Mulliken Center for Theoretical Chemistry        |     
     |                    University of Bonn                     |     
      -----------------------------------------------------------      

   * xtb version 6.7.1 (edcfbbe) compiled by 'albert@albert-system' on 2024-07-22

   xtb is free software: you can redistribute it and/or modify it under
   the terms of the GNU Lesser General Public License as published by
   the Free Software Foundation, either version 3 of the License, or
   (at your option) any later version.
   
   xtb is distributed in the hope that it will be useful,
   but WITHOUT ANY WARRANTY; without even the implied warranty of
   MERCHANTABILITY or FITNESS FOR A PARTICULAR PURPOSE.  See the
   GNU Lesser General Public License for more details.
   
   Cite this work as:
   * C. Bannwarth, E. Caldeweyher, S. Ehlert, A. Hansen, P. Pracht,
     J. Seibert, S. Spicher, S. Grimme, WIREs Comput. Mol. Sci., 2020, 11,
     e01493. DOI: 10.1002/wcms.1493
   
   for GFN2-xTB:
   * C. Bannwarth, S. Ehlert and S. Grimme., J. Chem. Theory Comput., 2019,
     15, 1652-1671. DOI: 10.1021/acs.jctc.8b01176
   for GFN1-xTB:
   * S. Grimme, C. Bannwarth, P. Shushkov, J. Chem. Theory Comput., 2017,
     13, 1989-2009. DOI: 10.1021/acs.jctc.7b00118
   for GFN0-xTB:
   * P. Pracht, E. Caldeweyher, S. Ehlert, S. Grimme, ChemRxiv, 2019, preprint.
     DOI: 10.26434/chemrxiv.8326202.v1
   for GFN-FF:
   * S. Spicher and S. Grimme, Angew. Chem. Int. Ed., 2020, 59, 15665-15673.
     DOI: 10.1002/anie.202004239
   
   for ALPB and GBSA implicit solvation:
   * S. Ehlert, M. Stahn, S. Spicher, S. Grimme, J. Chem. Theory Comput.,
     2021, 17, 4250-4261. DOI: 10.1021/acs.jctc.1c00471
   
   for ddCOSMO and CPCM-X implicit solvation:
   * M. Stahn, S. Ehlert, S. Grimme, J. Phys. Chem. A,
     2023, XX, XXXX-XXXX. DOI: 10.1021/acs.jpca.3c04382
   
   for DFT-D4:
   * E. Caldeweyher, C. Bannwarth and S. Grimme, J. Chem. Phys., 2017,
     147, 034112. DOI: 10.1063/1.4993215
   * E. Caldeweyher, S. Ehlert, A. Hansen, H. Neugebauer, S. Spicher,
     C. Bannwarth and S. Grimme, J. Chem. Phys., 2019, 150, 154122.
     DOI: 10.1063/1.5090222
   * E. Caldeweyher, J.-M. Mewes, S. Ehlert and S. Grimme, Phys. Chem. Chem. Phys.
     2020, 22, 8499-8512. DOI: 10.1039/D0CP00502A
   
   for sTDA-xTB:
   * S. Grimme and C. Bannwarth, J. Chem. Phys., 2016, 145, 054103.
     DOI: 10.1063/1.4959605
   
   in the mass-spec context:
   * V. Asgeirsson, C. Bauer and S. Grimme, Chem. Sci., 2017, 8, 4879.
     DOI: 10.1039/c7sc00601b
   * J. Koopman and S. Grimme, ACS Omega 2019, 4, 12, 15120-15133.
     DOI: 10.1021/acsomega.9b02011
   
   for metadynamics refer to:
   * S. Grimme, J. Chem. Theory Comput., 2019, 155, 2847-2862
     DOI: 10.1021/acs.jctc.9b00143
   
   for SPH calculations refer to:
   * S. Spicher and S. Grimme, J. Chem. Theory Comput., 2021, 17, 1701-1714
     DOI: 10.1021/acs.jctc.0c01306
   
   for ONIOM refer to:
   * C. Plett, A. Katbashev, S. Ehlert, S. Grimme, M. Bursch,
     Phys. Chem. Chem. Phys., 2023, 25, 17860-17868. DOI: 10.1039/D3CP02178E
   
   for DIPRO refer to:
   * J. Kohn, N. Gildemeister, S. Grimme, D. Fazzi, A. Hansen,
     J. Chem. Phys., 2023, just accepted.
   
   for PTB refer to:
   * S. Grimme, M. Mueller, A. Hansen, J. Chem. Phys., 2023, 158, 124111.
     DOI: 10.1063/5.0137838
   
   with help from (in alphabetical order)
   P. Atkinson, C. Bannwarth, F. Bohle, G. Brandenburg, E. Caldeweyher
   M. Checinski, S. Dohm, S. Ehlert, S. Ehrlich, I. Gerasimov, C. Hölzer
   A. Katbashev, J. Kohn, J. Koopman, C. Lavigne, S. Lehtola, F. März, M. Müller,
   F. Musil, H. Neugebauer, J. Pisarek, C. Plett, P. Pracht, F. Pultar,
   J. Seibert, P. Shushkov, S. Spicher, M. Stahn, M. Steiner, T. Strunk,
   J. Stückrath, T. Rose, and J. Unsleber
   
 * started run on 2026/06/19 at 18:52:46.437     
   ID    Z sym.   atoms
    1    6 C      1-11, 13, 18, 20, 22-25, 29, 31, 33, 34, 36-41, 43-50,
                  53-57, 59, 64-77
    2    8 O      12, 14-17, 19, 21, 26-28, 30, 32, 35, 42, 51, 52, 58, 60-63
    3    1 H      78-149

           -------------------------------------------------
          |                Calculation Setup                |
           -------------------------------------------------

          program call               : xtb PAPU-0083/conf02.xyz --gfn 2 --alpb water --chrg 0 --uhf 0 --namespace PAPU-0083/conf02_water
          hostname                   : cpu10
          calculation namespace      : PAPU-0083/conf02_water
          coordinate file            : PAPU-0083/conf02.xyz
          omp threads                :                    16


           -------------------------------------------------
          |                 G F N 2 - x T B                 |
           -------------------------------------------------

        Reference                      10.1021/acs.jctc.8b01176
      * Hamiltonian:
        H0-scaling (s, p, d)           1.850000    2.230000    2.230000
        zeta-weighting                 0.500000
      * Dispersion:
        s8                             2.700000
        a1                             0.520000
        a2                             5.000000
        s9                             5.000000
      * Repulsion:
        kExp                           1.500000    1.000000
        rExp                           1.000000
      * Coulomb:
        alpha                          2.000000
        third order                    shell-resolved
        anisotropic                    true
        a3                             3.000000
        a5                             4.000000
        cn-shift                       1.200000
        cn-exp                         4.000000
        max-rad                        5.000000

      * Solvation model:               ALPB
        Solvent                        water
        Parameter file                 internal GFN2-xTB/ALPB
        Dielectric constant                8.0200E+01
        Reference state                gsolv [1 M gas/solution]
        Free energy shift                  1.0808E-03 Eh       6.7819E-01 kcal/mol
        Temperature                        2.9815E+02 K
        Density                            1.0000E+00 kg/L
        Solvent mass                       1.8000E+01 g/mol
        Interaction kernel             P16
        Born radius scaling (c1)           1.4744E+00
        Born radii integrator          GBOBC
        Born offset                        0.0000E+00 a0       0.0000E+00 AA
        H-bond correction              true
        Ion screening                  false
        Surface tension                    1.0000E-05 Eh       1.5569E+01 dyn/cm
        Grid points                               230 per atom

          ...................................................
          :                      SETUP                      :
          :.................................................:
          :  # basis functions                 380          :
          :  # atomic orbitals                 380          :
          :  # shells                          226          :
          :  # electrons                       422          :
          :  max. iterations                   250          :
          :  Hamiltonian                  GFN2-xTB          :
          :  restarted?                      false          :
          :  GBSA solvation                   true          :
          :  PC potential                    false          :
          :  electronic temp.          300.0000000     K    :
          :  accuracy                    1.0000000          :
          :  -> integral cutoff          0.2500000E+02      :
          :  -> integral neglect         0.1000000E-07      :
          :  -> SCF convergence          0.1000000E-05 Eh   :
          :  -> wf. convergence          0.1000000E-03 e    :
          :  Broyden damping             0.4000000          :
          :  net charge                          0          :
          :  unpaired electrons                  0          :
          ...................................................

 iter      E             dE          RMSdq      gap      omega  full diag
   1   -244.4904100 -0.244490E+03  0.445E+00    2.79       0.0  T
   2   -244.7331454 -0.242735E+00  0.243E+00    2.24       1.0  T
   3   -244.7199930  0.131524E-01  0.977E-01    2.21       1.0  T
   4   -244.7528639 -0.328709E-01  0.316E-01    1.97       1.0  T
   5   -244.7590529 -0.618900E-02  0.134E-01    1.98       1.0  T
   6   -244.7598212 -0.768293E-03  0.695E-02    1.99       1.0  T
   7   -244.7599835 -0.162285E-03  0.333E-02    2.00       1.0  T
   8   -244.7600294 -0.459263E-04  0.152E-02    2.00       1.0  T
   9   -244.7600392 -0.977783E-05  0.764E-03    2.00       1.1  T
  10   -244.7600411 -0.188353E-05  0.452E-03    2.00       1.8  T
  11   -244.7600421 -0.953503E-06  0.229E-03    2.00       3.6  T
  12   -244.7600423 -0.227280E-06  0.852E-04    2.00       9.6  T
  13   -244.7600423 -0.279317E-07  0.411E-04    2.00      19.9  T

   *** convergence criteria satisfied after 13 iterations ***

         #    Occupation            Energy/Eh            Energy/eV
      -------------------------------------------------------------
         1        2.0000           -0.7775325             -21.1577
       ...           ...                  ...                  ...
       205        2.0000           -0.4032703             -10.9735
       206        2.0000           -0.4026552             -10.9568
       207        2.0000           -0.3994192             -10.8688
       208        2.0000           -0.3986039             -10.8466
       209        2.0000           -0.3865943             -10.5198
       210        2.0000           -0.3842793             -10.4568
       211        2.0000           -0.3814420             -10.3796 (HOMO)
       212                         -0.3079055              -8.3785 (LUMO)
       213                         -0.2895985              -7.8804
       214                         -0.2381350              -6.4800
       215                         -0.2363891              -6.4325
       216                         -0.2338575              -6.3636
       ...                                ...                  ...
       380                          0.6885443              18.7362
      -------------------------------------------------------------
                  HL-Gap            0.0735365 Eh            2.0010 eV
             Fermi-level           -0.3446738 Eh           -9.3791 eV

 SCC (total)                   0 d,  0 h,  0 min,  0.274 sec
 SCC setup                      ...        0 min,  0.004 sec (  1.386%)
 Dispersion                     ...        0 min,  0.005 sec (  1.671%)
 classical contributions        ...        0 min,  0.000 sec (  0.063%)
 integral evaluation            ...        0 min,  0.012 sec (  4.449%)
 iterations                     ...        0 min,  0.211 sec ( 76.985%)
 molecular gradient             ...        0 min,  0.040 sec ( 14.652%)
 printout                       ...        0 min,  0.002 sec (  0.779%)

         :::::::::::::::::::::::::::::::::::::::::::::::::::::
         ::                     SUMMARY                     ::
         :::::::::::::::::::::::::::::::::::::::::::::::::::::
         :: total energy            -242.055746445899 Eh    ::
         :: total w/o Gsasa/hb      -242.027406557351 Eh    ::
         :: gradient norm              0.121422525298 Eh/a0 ::
         :: HOMO-LUMO gap              2.001029224394 eV    ::
         ::.................................................::
         :: SCC energy              -244.745494062717 Eh    ::
         :: -> isotropic ES            0.536865385085 Eh    ::
         :: -> anisotropic ES         -0.020534982356 Eh    ::
         :: -> anisotropic XC          0.027602337840 Eh    ::
         :: -> dispersion             -0.204921842213 Eh    ::
         :: -> Gsolv                  -0.076788115278 Eh    ::
         ::    -> Gelec               -0.048448226730 Eh    ::
         ::    -> Gsasa                0.007476859694 Eh    ::
         ::    -> Ghb                 -0.036897507940 Eh    ::
         ::    -> Gshift               0.001080759698 Eh    ::
         :: repulsion energy           2.689747616818 Eh    ::
         :: add. restraining           0.000000000000 Eh    ::
         :: total charge              -0.000000000000 e     ::
         :::::::::::::::::::::::::::::::::::::::::::::::::::::

           -------------------------------------------------
          |                Property Printout                |
           -------------------------------------------------

    * Orbital Energies and Occupations

         #    Occupation            Energy/Eh            Energy/eV
      -------------------------------------------------------------
         1        2.0000           -0.7775325             -21.1577
       ...           ...                  ...                  ...
       199        2.0000           -0.4162162             -11.3258
       200        2.0000           -0.4148784             -11.2894
       201        2.0000           -0.4137382             -11.2584
       202        2.0000           -0.4125838             -11.2270
       203        2.0000           -0.4113968             -11.1947
       204        2.0000           -0.4048874             -11.0175
       205        2.0000           -0.4032703             -10.9735
       206        2.0000           -0.4026552             -10.9568
       207        2.0000           -0.3994192             -10.8688
       208        2.0000           -0.3986039             -10.8466
       209        2.0000           -0.3865943             -10.5198
       210        2.0000           -0.3842793             -10.4568
       211        2.0000           -0.3814420             -10.3796 (HOMO)
       212                         -0.3079055              -8.3785 (LUMO)
       213                         -0.2895985              -7.8804
       214                         -0.2381350              -6.4800
       215                         -0.2363891              -6.4325
       216                         -0.2338575              -6.3636
       217                         -0.2324250              -6.3246
       218                         -0.2248845              -6.1194
       219                         -0.2235832              -6.0840
       220                         -0.2187478              -5.9524
       221                         -0.1905156              -5.1842
       222                         -0.1891827              -5.1479
       ...                                ...                  ...
       380                          0.6885443              18.7362
      -------------------------------------------------------------
                  HL-Gap            0.0735365 Eh            2.0010 eV
             Fermi-level           -0.3446738 Eh           -9.3791 eV

     #   Z          covCN         q      C6AA      α(0)
     1   6 C        2.842     0.142    24.906     8.179
     2   6 C        2.967    -0.047    29.175     8.860
     3   6 C        2.964    -0.003    28.094     8.694
     4   6 C        2.930    -0.069    29.730     8.942
     5   6 C        2.837     0.147    24.789     8.159
     6   6 C        2.920    -0.098    30.465     9.051
     7   6 C        3.732     0.107    18.910     6.207
     8   6 C        3.722     0.098    19.073     6.237
     9   6 C        3.759     0.112    18.788     6.179
    10   6 C        3.746     0.093    19.107     6.235
    11   6 C        3.730     0.095    19.100     6.239
    12   8 O        1.691    -0.352    19.932     6.028
    13   6 C        3.684     0.082    19.408     6.308
    14   8 O        1.652    -0.490    22.671     6.428
    15   8 O        1.651    -0.485    22.568     6.413
    16   8 O        1.698    -0.312    19.201     5.916
    17   8 O        1.701    -0.295    18.911     5.871
    18   6 C        3.674     0.071    19.616     6.347
    19   8 O        1.651    -0.481    22.483     6.401
    20   6 C        3.642     0.249    17.065     5.939
    21   8 O        1.696    -0.362    20.116     6.055
    22   6 C        3.742     0.116    18.759     6.179
    23   6 C        3.722     0.093    19.146     6.249
    24   6 C        3.724     0.098    19.071     6.236
    25   6 C        3.732     0.090    19.181     6.251
    26   8 O        1.652    -0.471    22.270     6.370
    27   8 O        1.697    -0.328    19.487     5.960
    28   8 O        1.653    -0.495    22.777     6.443
    29   6 C        3.733     0.072    19.456     6.296
    30   8 O        1.704    -0.269    18.466     5.802
    31   6 C        2.753     0.346    21.131     7.527
    32   8 O        0.857    -0.462    22.965     6.425
    33   6 C        2.728     0.353    21.006     7.503
    34   6 C        2.896    -0.082    30.049     8.988
    35   8 O        0.858    -0.467    23.059     6.438
    36   6 C        2.902    -0.011    28.280     8.720
    37   6 C        2.898    -0.039    28.976     8.826
    38   6 C        2.895    -0.017    28.428     8.742
    39   6 C        3.806    -0.070    21.830     6.651
    40   6 C        3.728     0.122    18.678     6.170
    41   6 C        2.893    -0.067    29.675     8.931
    42   8 O        1.652    -0.520    23.338     6.521
    43   6 C        2.898    -0.051    29.258     8.869
    44   6 C        2.896    -0.052    29.289     8.873
    45   6 C        2.895    -0.046    29.144     8.851
    46   6 C        3.805    -0.064    21.731     6.636
    47   6 C        3.802    -0.048    21.431     6.591
    48   6 C        3.800    -0.058    21.614     6.619
    49   6 C        3.799    -0.044    21.364     6.581
    50   6 C        3.750    -0.112    22.701     6.795
    51   8 O        1.656    -0.439    21.614     6.276
    52   8 O        1.657    -0.443    21.703     6.289
    53   6 C        3.627     0.229    17.397     6.008
    54   6 C        3.723     0.090    19.195     6.257
    55   6 C        3.724     0.098    19.068     6.236
    56   6 C        3.722     0.093    19.149     6.250
    57   6 C        3.739     0.096    19.072     6.231
    58   8 O        1.696    -0.349    19.878     6.020
    59   6 C        3.674     0.073    19.576     6.340
    60   8 O        1.653    -0.490    22.682     6.429
    61   8 O        1.654    -0.495    22.775     6.442
    62   8 O        1.652    -0.482    22.518     6.406
    63   8 O        1.654    -0.496    22.797     6.445
    64   6 C        2.974    -0.029    28.728     8.792
    65   6 C        2.926    -0.028    28.691     8.784
    66   6 C        2.926    -0.033    28.833     8.806
    67   6 C        2.976     0.023    27.491     8.601
    68   6 C        2.926    -0.033    28.822     8.804
    69   6 C        2.924    -0.020    28.505     8.756
    70   6 C        2.976     0.001    28.005     8.681
    71   6 C        2.925    -0.038    28.952     8.824
    72   6 C        2.925    -0.042    29.031     8.836
    73   6 C        2.972     0.018    27.605     8.618
    74   6 C        2.925    -0.039    28.978     8.828
    75   6 C        2.926    -0.036    28.908     8.817
    76   6 C        3.806    -0.062    21.689     6.630
    77   6 C        3.752    -0.108    22.626     6.783
    78   1 H        0.926     0.066     2.133     2.284
    79   1 H        0.926     0.077     2.014     2.219
    80   1 H        0.924     0.030     2.589     2.516
    81   1 H        0.923     0.062     2.177     2.307
    82   1 H        0.923     0.026     2.650     2.546
    83   1 H        0.923     0.093     1.855     2.130
    84   1 H        0.924     0.035     2.514     2.479
    85   1 H        0.924     0.014     2.819     2.626
    86   1 H        0.924     0.052     2.298     2.371
    87   1 H        0.802     0.328     0.644     1.261
    88   1 H        0.802     0.341     0.611     1.228
    89   1 H        0.924     0.067     2.119     2.276
    90   1 H        0.924     0.070     2.083     2.257
    91   1 H        0.801     0.330     0.639     1.256
    92   1 H        0.924     0.011     2.875     2.652
    93   1 H        0.923     0.026     2.645     2.544
    94   1 H        0.923     0.052     2.301     2.372
    95   1 H        0.923     0.037     2.493     2.469
    96   1 H        0.924     0.073     2.052     2.240
    97   1 H        0.802     0.348     0.594     1.211
    98   1 H        0.803     0.382     0.519     1.132
    99   1 H        0.924     0.079     1.994     2.209
   100   1 H        0.924     0.109     1.708     2.044
   101   1 H        0.926     0.092     1.864     2.135
   102   1 H        0.926     0.086     1.920     2.167
   103   1 H        0.926     0.065     2.144     2.290
   104   1 H        0.926     0.071     2.071     2.251
   105   1 H        0.924     0.071     2.074     2.252
   106   1 H        0.924     0.064     2.151     2.294
   107   1 H        0.923     0.031     2.578     2.511
   108   1 H        0.926     0.049     2.335     2.390
   109   1 H        0.804     0.358     0.569     1.185
   110   1 H        0.926     0.065     2.140     2.288
   111   1 H        0.926     0.051     2.308     2.376
   112   1 H        0.926     0.012     2.854     2.642
   113   1 H        0.924     0.041     2.435     2.440
   114   1 H        0.924     0.053     2.287     2.365
   115   1 H        0.924     0.004     2.986     2.702
   116   1 H        0.924     0.038     2.480     2.463
   117   1 H        0.924     0.032     2.563     2.504
   118   1 H        0.924     0.029     2.596     2.519
   119   1 H        0.924     0.017     2.776     2.606
   120   1 H        0.923     0.024     2.673     2.557
   121   1 H        0.924     0.032     2.561     2.502
   122   1 H        0.924     0.048     2.342     2.393
   123   1 H        0.924     0.036     2.499     2.472
   124   1 H        0.803     0.347     0.594     1.211
   125   1 H        0.804     0.378     0.527     1.140
   126   1 H        0.923     0.062     2.177     2.307
   127   1 H        0.924     0.047     2.354     2.400
   128   1 H        0.923     0.040     2.456     2.451
   129   1 H        0.923     0.057     2.238     2.339
   130   1 H        0.923     0.048     2.342     2.393
   131   1 H        0.924     0.056     2.252     2.347
   132   1 H        0.924     0.069     2.099     2.266
   133   1 H        0.803     0.374     0.535     1.149
   134   1 H        0.804     0.374     0.534     1.148
   135   1 H        0.802     0.336     0.621     1.239
   136   1 H        0.803     0.358     0.569     1.185
   137   1 H        0.926     0.055     2.263     2.352
   138   1 H        0.926     0.061     2.188     2.313
   139   1 H        0.926     0.062     2.180     2.309
   140   1 H        0.926     0.055     2.256     2.349
   141   1 H        0.926     0.043     2.414     2.430
   142   1 H        0.926     0.044     2.390     2.418
   143   1 H        0.926     0.041     2.433     2.439
   144   1 H        0.926     0.033     2.541     2.493
   145   1 H        0.924     0.041     2.437     2.441
   146   1 H        0.924     0.042     2.428     2.437
   147   1 H        0.924     0.042     2.419     2.432
   148   1 H        0.924     0.034     2.530     2.488
   149   1 H        0.924     0.051     2.314     2.379

 Mol. C6AA /au·bohr⁶  :     220410.859118
 Mol. C8AA /au·bohr⁸  :    5053418.054664
 Mol. α(0) /au        :        709.705409


Wiberg/Mayer (AO) data.
largest (>0.10) Wiberg bond orders for each atom

 ---------------------------------------------------------------------------
     #   Z sym  total        # sym  WBO       # sym  WBO       # sym  WBO
 ---------------------------------------------------------------------------
     1   6 C    3.945 --     6 C    1.388     2 C    1.333    51 O    1.077
     2   6 C    3.968 --     3 C    1.385     1 C    1.333     7 C    0.990
     3   6 C    3.986 --     4 C    1.430     2 C    1.385    13 C    0.999
     4   6 C    3.984 --     3 C    1.430     5 C    1.360    78 H    0.964
     5   6 C    3.946 --     6 C    1.381     4 C    1.360    52 O    1.078
     6   6 C    3.977 --     1 C    1.388     5 C    1.381    79 H    0.961
     7   6 C    3.935 --     2 C    0.990    80 H    0.950     8 C    0.946
                            12 O    0.946
     8   6 C    3.952 --    15 O    0.993     9 C    0.965    81 H    0.958
                             7 C    0.946
     9   6 C    3.933 --    10 C    0.967     8 C    0.965    82 H    0.950
                            17 O    0.942
    10   6 C    3.934 --     9 C    0.967    11 C    0.961    16 O    0.960
                            83 H    0.951
    11   6 C    3.943 --    18 C    0.983    10 C    0.961    12 O    0.960
                            84 H    0.951
    12   8 O    2.074 --    11 C    0.960     7 C    0.946
    13   6 C    3.959 --     3 C    0.999    14 O    0.990    86 H    0.967
                            85 H    0.950
    14   8 O    1.932 --    13 C    0.990    87 H    0.843
    15   8 O    1.959 --     8 C    0.993    88 H    0.825
    16   8 O    2.119 --    20 C    0.988    10 C    0.960
    17   8 O    2.261 --    33 C    1.070     9 C    0.942    35 O    0.143
    18   6 C    3.951 --    19 O    1.005    11 C    0.983    90 H    0.966
                            89 H    0.964
    19   8 O    1.924 --    18 C    1.005    91 H    0.847
    20   6 C    3.926 --    16 O    0.988    25 C    0.955    21 O    0.952
                            92 H    0.941
    21   8 O    2.064 --    20 C    0.952    22 C    0.943
    22   6 C    3.937 --    29 C    0.982    23 C    0.968    93 H    0.953
                            21 O    0.943
    23   6 C    3.966 --    28 O    1.009    22 C    0.968    24 C    0.963
                            94 H    0.957
    24   6 C    3.965 --    26 O    1.002    25 C    0.966    23 C    0.963
                            95 H    0.948
    25   6 C    3.942 --    24 C    0.966    27 O    0.959    20 C    0.955
                            96 H    0.947
    26   8 O    1.955 --    24 C    1.002    97 H    0.821
    27   8 O    2.116 --    53 C    0.980    25 C    0.959
    28   8 O    1.914 --    23 C    1.009    98 H    0.829
    29   6 C    3.924 --    22 C    0.982    30 O    0.962    99 H    0.960
                           100 H    0.959
    30   8 O    2.287 --    31 C    1.095    29 C    0.962    32 O    0.155
    31   6 C    3.898 --    32 O    1.692    30 O    1.095    64 C    1.023
    32   8 O    1.992 --    31 C    1.692    30 O    0.155
    33   6 C    3.895 --    35 O    1.645    34 C    1.074    17 O    1.070
    34   6 C    3.965 --    36 C    1.719    33 C    1.074   101 H    0.952
                            38 C    0.112
    35   8 O    1.992 --    33 C    1.645    17 O    0.143
    36   6 C    3.969 --    34 C    1.719    37 C    1.156   102 H    0.939
    37   6 C    3.986 --    38 C    1.785    36 C    1.156   103 H    0.958
    38   6 C    3.959 --    37 C    1.785    39 C    1.041   104 H    0.954
                            34 C    0.112
    39   6 C    3.989 --    38 C    1.041   106 H    0.970   105 H    0.956
                            40 C    0.949
    40   6 C    3.944 --    41 C    1.004    42 O    0.976   107 H    0.957
                            39 C    0.949
    41   6 C    3.985 --    43 C    1.907    40 C    1.004   108 H    0.965
    42   8 O    1.901 --    40 C    0.976   109 H    0.857
    43   6 C    3.988 --    41 C    1.907    44 C    1.052   110 H    0.934
    44   6 C    3.990 --    45 C    1.902    43 C    1.052   111 H    0.952
    45   6 C    3.988 --    44 C    1.902    46 C    1.025   112 H    0.959
    46   6 C    3.997 --    45 C    1.025    47 C    1.006   114 H    0.960
                           113 H    0.959
    47   6 C    3.995 --    48 C    1.009    46 C    1.006   116 H    0.973
                           115 H    0.970
    48   6 C    3.996 --    47 C    1.009    49 C    1.006   117 H    0.977
                           118 H    0.976
    49   6 C    3.997 --    50 C    1.021    48 C    1.006   120 H    0.977
                           119 H    0.975
    50   6 C    3.994 --    49 C    1.021   121 H    0.987   123 H    0.982
                           122 H    0.980
    51   8 O    2.082 --     1 C    1.077   124 H    0.827
    52   8 O    2.081 --     5 C    1.078   125 H    0.838
    53   6 C    3.912 --    27 O    0.980    54 C    0.953    58 O    0.949
                           126 H    0.945
    54   6 C    3.958 --    62 O    0.998    55 C    0.967    53 C    0.953
                           127 H    0.946
    55   6 C    3.962 --    61 O    1.001    56 C    0.968    54 C    0.967
                           128 H    0.959
    56   6 C    3.962 --    60 O    1.000    57 C    0.969    55 C    0.968
                           129 H    0.957
    57   6 C    3.932 --    59 C    0.983    56 C    0.969   130 H    0.956
                            58 O    0.940
    58   8 O    2.087 --    53 C    0.949    57 C    0.940
    59   6 C    3.960 --    63 O    1.014    57 C    0.983   132 H    0.966
                           131 H    0.962
    60   8 O    1.938 --    56 C    1.000   133 H    0.831
    61   8 O    1.925 --    55 C    1.001   134 H    0.842
    62   8 O    1.932 --    54 C    0.998   135 H    0.849
    63   8 O    1.917 --    59 C    1.014   136 H    0.831
    64   6 C    3.977 --    69 C    1.370    65 C    1.366    31 C    1.023
    65   6 C    3.988 --    66 C    1.473    64 C    1.366   137 H    0.962
    66   6 C    3.989 --    65 C    1.473    67 C    1.373   138 H    0.964
    67   6 C    3.984 --    66 C    1.373    68 C    1.369    70 C    1.055
    68   6 C    3.987 --    69 C    1.470    67 C    1.369   139 H    0.963
    69   6 C    3.987 --    68 C    1.470    64 C    1.370   140 H    0.965
    70   6 C    3.986 --    71 C    1.381    75 C    1.379    67 C    1.055
                            73 C    0.100
    71   6 C    3.988 --    72 C    1.462    70 C    1.381   141 H    0.967
                            74 C    0.104
    72   6 C    3.990 --    71 C    1.462    73 C    1.402   142 H    0.968
                            75 C    0.104
    73   6 C    3.979 --    74 C    1.404    72 C    1.402    76 C    1.013
                            70 C    0.100
    74   6 C    3.990 --    75 C    1.459    73 C    1.404   143 H    0.967
                            71 C    0.104
    75   6 C    3.988 --    74 C    1.459    70 C    1.379   144 H    0.966
                            72 C    0.104
    76   6 C    3.996 --    73 C    1.013    77 C    1.002   146 H    0.973
                           145 H    0.971
    77   6 C    3.992 --    76 C    1.002   148 H    0.987   147 H    0.985
                           149 H    0.981
    78   1 H    0.995 --     4 C    0.964
    79   1 H    0.993 --     6 C    0.961
    80   1 H    0.999 --     7 C    0.950
    81   1 H    0.996 --     8 C    0.958
    82   1 H    0.999 --     9 C    0.950
    83   1 H    0.991 --    10 C    0.951
    84   1 H    0.999 --    11 C    0.951
    85   1 H    0.999 --    13 C    0.950
    86   1 H    0.997 --    13 C    0.967
    87   1 H    0.893 --    14 O    0.843
    88   1 H    0.884 --    15 O    0.825
    89   1 H    0.995 --    18 C    0.964
    90   1 H    0.995 --    18 C    0.966
    91   1 H    0.891 --    19 O    0.847
    92   1 H    1.000 --    20 C    0.941
    93   1 H    0.999 --    22 C    0.953
    94   1 H    0.997 --    23 C    0.957
    95   1 H    0.999 --    24 C    0.948
    96   1 H    0.994 --    25 C    0.947
    97   1 H    0.879 --    26 O    0.821
    98   1 H    0.854 --    28 O    0.829
    99   1 H    0.993 --    29 C    0.960
   100   1 H    0.988 --    29 C    0.959
   101   1 H    0.991 --    34 C    0.952
   102   1 H    0.993 --    36 C    0.939
   103   1 H    0.995 --    37 C    0.958
   104   1 H    0.995 --    38 C    0.954
   105   1 H    0.989 --    39 C    0.956
   106   1 H    0.996 --    39 C    0.970
   107   1 H    0.999 --    40 C    0.957
   108   1 H    0.997 --    41 C    0.965
   109   1 H    0.870 --    42 O    0.857
   110   1 H    0.996 --    43 C    0.934
   111   1 H    0.997 --    44 C    0.952
   112   1 H    1.000 --    45 C    0.959
   113   1 H    0.998 --    46 C    0.959
   114   1 H    0.997 --    46 C    0.960
   115   1 H    1.000 --    47 C    0.970
   116   1 H    0.998 --    47 C    0.973
   117   1 H    0.999 --    48 C    0.977
   118   1 H    0.999 --    48 C    0.976
   119   1 H    1.000 --    49 C    0.975
   120   1 H    0.999 --    49 C    0.977
   121   1 H    0.999 --    50 C    0.987
   122   1 H    0.998 --    50 C    0.980
   123   1 H    0.999 --    50 C    0.982
   124   1 H    0.879 --    51 O    0.827
   125   1 H    0.856 --    52 O    0.838
   126   1 H    0.995 --    53 C    0.945
   127   1 H    0.998 --    54 C    0.946
   128   1 H    0.998 --    55 C    0.959
   129   1 H    0.996 --    56 C    0.957
   130   1 H    0.998 --    57 C    0.956
   131   1 H    0.996 --    59 C    0.962
   132   1 H    0.995 --    59 C    0.966
   133   1 H    0.860 --    60 O    0.831
   134   1 H    0.859 --    61 O    0.842
   135   1 H    0.886 --    62 O    0.849
   136   1 H    0.872 --    63 O    0.831
   137   1 H    0.996 --    65 C    0.962
   138   1 H    0.996 --    66 C    0.964
   139   1 H    0.996 --    68 C    0.963
   140   1 H    0.996 --    69 C    0.965
   141   1 H    0.998 --    71 C    0.967
   142   1 H    0.997 --    72 C    0.968
   143   1 H    0.998 --    74 C    0.967
   144   1 H    0.999 --    75 C    0.966
   145   1 H    0.998 --    76 C    0.971
   146   1 H    0.998 --    76 C    0.973
   147   1 H    0.997 --    77 C    0.985
   148   1 H    0.999 --    77 C    0.987
   149   1 H    0.997 --    77 C    0.981
 ---------------------------------------------------------------------------

Topologies differ in total number of bonds
Writing topology from bond orders to xtbtopo.mol

molecular dipole:
                 x           y           z       tot (Debye)
 q only:        1.114      -2.651       0.671
   full:        1.423      -2.570       0.731       7.695
molecular quadrupole (traceless):
                xx          xy          yy          xz          yz          zz
 q only:       55.330       6.382     -26.262      11.560     -16.264     -29.069
  q+dip:       32.696       1.470      -9.194      17.107     -26.150     -23.502
   full:       31.471       3.549     -14.038      18.314     -24.695     -17.434


           -------------------------------------------------
          | TOTAL ENERGY             -242.055746445899 Eh   |
          | GRADIENT NORM               0.121422525298 Eh/α |
          | HOMO-LUMO GAP               2.001029224394 eV   |
           -------------------------------------------------

------------------------------------------------------------------------
 * finished run on 2026/06/19 at 18:52:46.764     
------------------------------------------------------------------------
 total:
 * wall-time:     0 d,  0 h,  0 min,  0.326 sec
 *  cpu-time:     0 d,  0 h,  0 min,  4.952 sec
 * ratio c/w:    15.178 speedup
 SCF:
 * wall-time:     0 d,  0 h,  0 min,  0.275 sec
 *  cpu-time:     0 d,  0 h,  0 min,  4.310 sec
 * ratio c/w:    15.676 speedup

normal termination of xtb
