      -----------------------------------------------------------      
     |                   =====================                   |     
     |                           x T B                           |     
     |                   =====================                   |     
     |                         S. Grimme                         |     
     |          Mulliken Center for Theoretical Chemistry        |     
     |                    University of Bonn                     |     
      -----------------------------------------------------------      

   * xtb version 6.7.1 (edcfbbe) compiled by 'albert@albert-system' on 2024-07-22

   xtb is free software: you can redistribute it and/or modify it under
   the terms of the GNU Lesser General Public License as published by
   the Free Software Foundation, either version 3 of the License, or
   (at your option) any later version.
   
   xtb is distributed in the hope that it will be useful,
   but WITHOUT ANY WARRANTY; without even the implied warranty of
   MERCHANTABILITY or FITNESS FOR A PARTICULAR PURPOSE.  See the
   GNU Lesser General Public License for more details.
   
   Cite this work as:
   * C. Bannwarth, E. Caldeweyher, S. Ehlert, A. Hansen, P. Pracht,
     J. Seibert, S. Spicher, S. Grimme, WIREs Comput. Mol. Sci., 2020, 11,
     e01493. DOI: 10.1002/wcms.1493
   
   for GFN2-xTB:
   * C. Bannwarth, S. Ehlert and S. Grimme., J. Chem. Theory Comput., 2019,
     15, 1652-1671. DOI: 10.1021/acs.jctc.8b01176
   for GFN1-xTB:
   * S. Grimme, C. Bannwarth, P. Shushkov, J. Chem. Theory Comput., 2017,
     13, 1989-2009. DOI: 10.1021/acs.jctc.7b00118
   for GFN0-xTB:
   * P. Pracht, E. Caldeweyher, S. Ehlert, S. Grimme, ChemRxiv, 2019, preprint.
     DOI: 10.26434/chemrxiv.8326202.v1
   for GFN-FF:
   * S. Spicher and S. Grimme, Angew. Chem. Int. Ed., 2020, 59, 15665-15673.
     DOI: 10.1002/anie.202004239
   
   for ALPB and GBSA implicit solvation:
   * S. Ehlert, M. Stahn, S. Spicher, S. Grimme, J. Chem. Theory Comput.,
     2021, 17, 4250-4261. DOI: 10.1021/acs.jctc.1c00471
   
   for ddCOSMO and CPCM-X implicit solvation:
   * M. Stahn, S. Ehlert, S. Grimme, J. Phys. Chem. A,
     2023, XX, XXXX-XXXX. DOI: 10.1021/acs.jpca.3c04382
   
   for DFT-D4:
   * E. Caldeweyher, C. Bannwarth and S. Grimme, J. Chem. Phys., 2017,
     147, 034112. DOI: 10.1063/1.4993215
   * E. Caldeweyher, S. Ehlert, A. Hansen, H. Neugebauer, S. Spicher,
     C. Bannwarth and S. Grimme, J. Chem. Phys., 2019, 150, 154122.
     DOI: 10.1063/1.5090222
   * E. Caldeweyher, J.-M. Mewes, S. Ehlert and S. Grimme, Phys. Chem. Chem. Phys.
     2020, 22, 8499-8512. DOI: 10.1039/D0CP00502A
   
   for sTDA-xTB:
   * S. Grimme and C. Bannwarth, J. Chem. Phys., 2016, 145, 054103.
     DOI: 10.1063/1.4959605
   
   in the mass-spec context:
   * V. Asgeirsson, C. Bauer and S. Grimme, Chem. Sci., 2017, 8, 4879.
     DOI: 10.1039/c7sc00601b
   * J. Koopman and S. Grimme, ACS Omega 2019, 4, 12, 15120-15133.
     DOI: 10.1021/acsomega.9b02011
   
   for metadynamics refer to:
   * S. Grimme, J. Chem. Theory Comput., 2019, 155, 2847-2862
     DOI: 10.1021/acs.jctc.9b00143
   
   for SPH calculations refer to:
   * S. Spicher and S. Grimme, J. Chem. Theory Comput., 2021, 17, 1701-1714
     DOI: 10.1021/acs.jctc.0c01306
   
   for ONIOM refer to:
   * C. Plett, A. Katbashev, S. Ehlert, S. Grimme, M. Bursch,
     Phys. Chem. Chem. Phys., 2023, 25, 17860-17868. DOI: 10.1039/D3CP02178E
   
   for DIPRO refer to:
   * J. Kohn, N. Gildemeister, S. Grimme, D. Fazzi, A. Hansen,
     J. Chem. Phys., 2023, just accepted.
   
   for PTB refer to:
   * S. Grimme, M. Mueller, A. Hansen, J. Chem. Phys., 2023, 158, 124111.
     DOI: 10.1063/5.0137838
   
   with help from (in alphabetical order)
   P. Atkinson, C. Bannwarth, F. Bohle, G. Brandenburg, E. Caldeweyher
   M. Checinski, S. Dohm, S. Ehlert, S. Ehrlich, I. Gerasimov, C. Hölzer
   A. Katbashev, J. Kohn, J. Koopman, C. Lavigne, S. Lehtola, F. März, M. Müller,
   F. Musil, H. Neugebauer, J. Pisarek, C. Plett, P. Pracht, F. Pultar,
   J. Seibert, P. Shushkov, S. Spicher, M. Stahn, M. Steiner, T. Strunk,
   J. Stückrath, T. Rose, and J. Unsleber
   
 * started run on 2026/06/19 at 18:53:03.231     
   ID    Z sym.   atoms
    1    6 C      1-11, 13, 18, 20, 22-25, 29, 31, 33, 34, 36-41, 43-50,
                  53-57, 59, 64-75, 77
    2    8 O      12, 14-17, 19, 21, 26-28, 30, 32, 35, 42, 51, 52, 58,
                  60-63, 76
    3    1 H      78-147

           -------------------------------------------------
          |                Calculation Setup                |
           -------------------------------------------------

          program call               : xtb PAPU-0089/conf02.xyz --gfn 2 --alpb water --chrg 0 --uhf 0 --namespace PAPU-0089/conf02_water
          hostname                   : cpu10
          calculation namespace      : PAPU-0089/conf02_water
          coordinate file            : PAPU-0089/conf02.xyz
          omp threads                :                    16


           -------------------------------------------------
          |                 G F N 2 - x T B                 |
           -------------------------------------------------

        Reference                      10.1021/acs.jctc.8b01176
      * Hamiltonian:
        H0-scaling (s, p, d)           1.850000    2.230000    2.230000
        zeta-weighting                 0.500000
      * Dispersion:
        s8                             2.700000
        a1                             0.520000
        a2                             5.000000
        s9                             5.000000
      * Repulsion:
        kExp                           1.500000    1.000000
        rExp                           1.000000
      * Coulomb:
        alpha                          2.000000
        third order                    shell-resolved
        anisotropic                    true
        a3                             3.000000
        a5                             4.000000
        cn-shift                       1.200000
        cn-exp                         4.000000
        max-rad                        5.000000

      * Solvation model:               ALPB
        Solvent                        water
        Parameter file                 internal GFN2-xTB/ALPB
        Dielectric constant                8.0200E+01
        Reference state                gsolv [1 M gas/solution]
        Free energy shift                  1.0808E-03 Eh       6.7819E-01 kcal/mol
        Temperature                        2.9815E+02 K
        Density                            1.0000E+00 kg/L
        Solvent mass                       1.8000E+01 g/mol
        Interaction kernel             P16
        Born radius scaling (c1)           1.4744E+00
        Born radii integrator          GBOBC
        Born offset                        0.0000E+00 a0       0.0000E+00 AA
        H-bond correction              true
        Ion screening                  false
        Surface tension                    1.0000E-05 Eh       1.5569E+01 dyn/cm
        Grid points                               230 per atom

          ...................................................
          :                      SETUP                      :
          :.................................................:
          :  # basis functions                 378          :
          :  # atomic orbitals                 378          :
          :  # shells                          224          :
          :  # electrons                       422          :
          :  max. iterations                   250          :
          :  Hamiltonian                  GFN2-xTB          :
          :  restarted?                      false          :
          :  GBSA solvation                   true          :
          :  PC potential                    false          :
          :  electronic temp.          300.0000000     K    :
          :  accuracy                    1.0000000          :
          :  -> integral cutoff          0.2500000E+02      :
          :  -> integral neglect         0.1000000E-07      :
          :  -> SCF convergence          0.1000000E-05 Eh   :
          :  -> wf. convergence          0.1000000E-03 e    :
          :  Broyden damping             0.4000000          :
          :  net charge                          0          :
          :  unpaired electrons                  0          :
          ...................................................

 iter      E             dE          RMSdq      gap      omega  full diag
   1   -245.3576741 -0.245358E+03  0.445E+00    2.22       0.0  T
   2   -245.6104633 -0.252789E+00  0.243E+00    1.82       1.0  T
   3   -245.5901568  0.203065E-01  0.104E+00    1.92       1.0  T
   4   -245.6310354 -0.408786E-01  0.342E-01    1.71       1.0  T
   5   -245.6389067 -0.787130E-02  0.134E-01    1.70       1.0  T
   6   -245.6398266 -0.919864E-03  0.676E-02    1.70       1.0  T
   7   -245.6399726 -0.146012E-03  0.308E-02    1.71       1.0  T
   8   -245.6400078 -0.351787E-04  0.135E-02    1.71       1.0  T
   9   -245.6400143 -0.651649E-05  0.618E-03    1.71       1.3  T
  10   -245.6400153 -0.106828E-05  0.353E-03    1.71       2.3  T
  11   -245.6400158 -0.493584E-06  0.202E-03    1.71       4.1  T
  12   -245.6400160 -0.180529E-06  0.843E-04    1.71       9.8  T
  13   -245.6400161 -0.375500E-07  0.385E-04    1.71      21.4  T

   *** convergence criteria satisfied after 13 iterations ***

         #    Occupation            Energy/Eh            Energy/eV
      -------------------------------------------------------------
         1        2.0000           -0.7693501             -20.9351
       ...           ...                  ...                  ...
       205        2.0000           -0.4073881             -11.0856
       206        2.0000           -0.4033490             -10.9757
       207        2.0000           -0.4007103             -10.9039
       208        2.0000           -0.3953734             -10.7587
       209        2.0000           -0.3854160             -10.4877
       210        2.0000           -0.3792314             -10.3194
       211        2.0000           -0.3671525              -9.9907 (HOMO)
       212                         -0.3043858              -8.2828 (LUMO)
       213                         -0.2916163              -7.9353
       214                         -0.2531852              -6.8895
       215                         -0.2371991              -6.4545
       216                         -0.2338817              -6.3642
       ...                                ...                  ...
       378                          0.6921433              18.8342
      -------------------------------------------------------------
                  HL-Gap            0.0627667 Eh            1.7080 eV
             Fermi-level           -0.3357692 Eh           -9.1367 eV

 SCC (total)                   0 d,  0 h,  0 min,  0.273 sec
 SCC setup                      ...        0 min,  0.003 sec (  1.133%)
 Dispersion                     ...        0 min,  0.004 sec (  1.495%)
 classical contributions        ...        0 min,  0.000 sec (  0.045%)
 integral evaluation            ...        0 min,  0.012 sec (  4.277%)
 iterations                     ...        0 min,  0.212 sec ( 77.469%)
 molecular gradient             ...        0 min,  0.041 sec ( 14.988%)
 printout                       ...        0 min,  0.002 sec (  0.578%)

         :::::::::::::::::::::::::::::::::::::::::::::::::::::
         ::                     SUMMARY                     ::
         :::::::::::::::::::::::::::::::::::::::::::::::::::::
         :: total energy            -242.977693772247 Eh    ::
         :: total w/o Gsasa/hb      -242.950940279901 Eh    ::
         :: gradient norm              0.121371775993 Eh/a0 ::
         :: HOMO-LUMO gap              1.707969396279 eV    ::
         ::.................................................::
         :: SCC energy              -245.624961020304 Eh    ::
         :: -> isotropic ES            0.558014701985 Eh    ::
         :: -> anisotropic ES         -0.028461573070 Eh    ::
         :: -> anisotropic XC          0.023056682317 Eh    ::
         :: -> dispersion             -0.203566131333 Eh    ::
         :: -> Gsolv                  -0.078522635261 Eh    ::
         ::    -> Gelec               -0.051769142916 Eh    ::
         ::    -> Gsasa                0.008618942434 Eh    ::
         ::    -> Ghb                 -0.036453194477 Eh    ::
         ::    -> Gshift               0.001080759698 Eh    ::
         :: repulsion energy           2.647267248057 Eh    ::
         :: add. restraining           0.000000000000 Eh    ::
         :: total charge               0.000000000000 e     ::
         :::::::::::::::::::::::::::::::::::::::::::::::::::::

           -------------------------------------------------
          |                Property Printout                |
           -------------------------------------------------

    * Orbital Energies and Occupations

         #    Occupation            Energy/Eh            Energy/eV
      -------------------------------------------------------------
         1        2.0000           -0.7693501             -20.9351
       ...           ...                  ...                  ...
       199        2.0000           -0.4184963             -11.3879
       200        2.0000           -0.4165647             -11.3353
       201        2.0000           -0.4157574             -11.3133
       202        2.0000           -0.4149778             -11.2921
       203        2.0000           -0.4134775             -11.2513
       204        2.0000           -0.4099920             -11.1565
       205        2.0000           -0.4073881             -11.0856
       206        2.0000           -0.4033490             -10.9757
       207        2.0000           -0.4007103             -10.9039
       208        2.0000           -0.3953734             -10.7587
       209        2.0000           -0.3854160             -10.4877
       210        2.0000           -0.3792314             -10.3194
       211        2.0000           -0.3671525              -9.9907 (HOMO)
       212                         -0.3043858              -8.2828 (LUMO)
       213                         -0.2916163              -7.9353
       214                         -0.2531852              -6.8895
       215                         -0.2371991              -6.4545
       216                         -0.2338817              -6.3642
       217                         -0.2263381              -6.1590
       218                         -0.2244614              -6.1079
       219                         -0.2196498              -5.9770
       220                         -0.2172270              -5.9110
       221                         -0.1964531              -5.3458
       222                         -0.1514005              -4.1198
       ...                                ...                  ...
       378                          0.6921433              18.8342
      -------------------------------------------------------------
                  HL-Gap            0.0627667 Eh            1.7080 eV
             Fermi-level           -0.3357692 Eh           -9.1367 eV

     #   Z          covCN         q      C6AA      α(0)
     1   6 C        2.843     0.139    24.973     8.190
     2   6 C        2.969    -0.050    29.235     8.869
     3   6 C        2.964    -0.003    28.090     8.693
     4   6 C        2.929    -0.074    29.844     8.959
     5   6 C        2.838     0.148    24.787     8.159
     6   6 C        2.919    -0.100    30.520     9.059
     7   6 C        3.744     0.105    18.926     6.206
     8   6 C        3.718     0.099    19.051     6.235
     9   6 C        3.752     0.100    18.993     6.215
    10   6 C        3.745     0.097    19.042     6.225
    11   6 C        3.740     0.097    19.054     6.228
    12   8 O        1.695    -0.346    19.818     6.010
    13   6 C        3.682     0.078    19.485     6.321
    14   8 O        1.652    -0.501    22.913     6.462
    15   8 O        1.651    -0.496    22.813     6.448
    16   8 O        1.698    -0.345    19.801     6.008
    17   8 O        1.702    -0.299    18.981     5.882
    18   6 C        3.675     0.076    19.536     6.333
    19   8 O        1.654    -0.495    22.780     6.443
    20   6 C        3.640     0.242    17.163     5.958
    21   8 O        1.696    -0.367    20.211     6.070
    22   6 C        3.732     0.094    19.111     6.240
    23   6 C        3.721     0.086    19.254     6.267
    24   6 C        3.724     0.093    19.136     6.247
    25   6 C        3.754     0.088    19.177     6.245
    26   8 O        1.654    -0.469    22.241     6.366
    27   8 O        1.700    -0.340    19.708     5.994
    28   8 O        1.652    -0.454    21.930     6.322
    29   6 C        3.716     0.069    19.543     6.316
    30   8 O        1.703    -0.261    18.331     5.781
    31   6 C        2.736     0.352    21.026     7.508
    32   8 O        0.857    -0.448    22.665     6.383
    33   6 C        2.728     0.357    20.935     7.491
    34   6 C        2.896    -0.087    30.180     9.007
    35   8 O        0.858    -0.491    23.596     6.513
    36   6 C        2.903     0.007    27.871     8.656
    37   6 C        2.898    -0.040    28.987     8.828
    38   6 C        2.897    -0.004    28.127     8.696
    39   6 C        3.806    -0.074    21.915     6.664
    40   6 C        3.728     0.116    18.777     6.186
    41   6 C        2.894    -0.062    29.532     8.910
    42   8 O        1.651    -0.495    22.791     6.444
    43   6 C        2.899    -0.046    29.139     8.851
    44   6 C        2.898    -0.051    29.261     8.869
    45   6 C        2.896    -0.049    29.209     8.861
    46   6 C        3.805    -0.064    21.718     6.634
    47   6 C        3.801    -0.058    21.614     6.619
    48   6 C        3.800    -0.059    21.645     6.624
    49   6 C        3.799    -0.053    21.523     6.606
    50   6 C        3.751    -0.106    22.588     6.778
    51   8 O        1.656    -0.429    21.429     6.249
    52   8 O        1.657    -0.451    21.866     6.313
    53   6 C        3.643     0.234    17.270     5.974
    54   6 C        3.721     0.092    19.159     6.251
    55   6 C        3.724     0.099    19.045     6.232
    56   6 C        3.722     0.094    19.129     6.246
    57   6 C        3.738     0.098    19.045     6.227
    58   8 O        1.696    -0.360    20.075     6.049
    59   6 C        3.674     0.073    19.584     6.341
    60   8 O        1.653    -0.490    22.675     6.428
    61   8 O        1.654    -0.491    22.702     6.432
    62   8 O        1.652    -0.481    22.484     6.401
    63   8 O        1.654    -0.496    22.809     6.447
    64   6 C        2.971    -0.023    28.577     8.769
    65   6 C        2.930    -0.022    28.566     8.765
    66   6 C        2.920    -0.032    28.789     8.799
    67   6 C        2.928    -0.027    28.687     8.784
    68   6 C        2.975     0.020    27.557     8.611
    69   6 C        2.937    -0.039    28.972     8.828
    70   6 C        2.977    -0.002    28.073     8.691
    71   6 C        2.923    -0.035    28.875     8.812
    72   6 C        2.921    -0.057    29.427     8.896
    73   6 C        2.866     0.137    25.010     8.197
    74   6 C        2.919    -0.063    29.572     8.918
    75   6 C        2.924    -0.035    28.867     8.811
    76   8 O        1.702    -0.310    19.171     5.912
    77   6 C        3.649     0.026    20.458     6.498
    78   1 H        0.926     0.067     2.120     2.277
    79   1 H        0.926     0.076     2.024     2.225
    80   1 H        0.924     0.046     2.372     2.408
    81   1 H        0.924     0.057     2.238     2.339
    82   1 H        0.924     0.064     2.154     2.295
    83   1 H        0.924     0.066     2.132     2.283
    84   1 H        0.923     0.052     2.296     2.369
    85   1 H        0.924     0.025     2.664     2.552
    86   1 H        0.924     0.057     2.234     2.338
    87   1 H        0.802     0.333     0.630     1.247
    88   1 H        0.803     0.347     0.595     1.212
    89   1 H        0.924     0.061     2.185     2.311
    90   1 H        0.924     0.055     2.255     2.348
    91   1 H        0.804     0.366     0.552     1.167
    92   1 H        0.923     0.038     2.470     2.458
    93   1 H        0.923     0.058     2.223     2.332
    94   1 H        0.923     0.083     1.949     2.183
    95   1 H        0.923     0.040     2.450     2.448
    96   1 H        0.924     0.072     2.065     2.247
    97   1 H        0.804     0.352     0.585     1.201
    98   1 H        0.802     0.331     0.634     1.251
    99   1 H        0.924     0.086     1.920     2.167
   100   1 H        0.924     0.106     1.732     2.058
   101   1 H        0.926     0.091     1.871     2.139
   102   1 H        0.926     0.065     2.137     2.286
   103   1 H        0.926     0.067     2.114     2.274
   104   1 H        0.926     0.073     2.051     2.240
   105   1 H        0.924     0.066     2.135     2.285
   106   1 H        0.924     0.070     2.081     2.256
   107   1 H        0.923     0.048     2.342     2.394
   108   1 H        0.926     0.036     2.496     2.471
   109   1 H        0.803     0.322     0.659     1.275
   110   1 H        0.926     0.061     2.187     2.312
   111   1 H        0.926     0.030     2.590     2.517
   112   1 H        0.926     0.055     2.263     2.352
   113   1 H        0.924     0.047     2.355     2.400
   114   1 H        0.924     0.051     2.306     2.375
   115   1 H        0.924     0.029     2.603     2.523
   116   1 H        0.924     0.026     2.638     2.540
   117   1 H        0.924     0.032     2.556     2.500
   118   1 H        0.924     0.026     2.646     2.544
   119   1 H        0.924     0.028     2.613     2.528
   120   1 H        0.923     0.020     2.729     2.583
   121   1 H        0.924     0.030     2.583     2.513
   122   1 H        0.924     0.036     2.502     2.473
   123   1 H        0.924     0.038     2.480     2.463
   124   1 H        0.803     0.347     0.596     1.213
   125   1 H        0.804     0.381     0.521     1.133
   126   1 H        0.923     0.021     2.725     2.581
   127   1 H        0.923     0.058     2.226     2.333
   128   1 H        0.923     0.035     2.510     2.478
   129   1 H        0.923     0.056     2.251     2.346
   130   1 H        0.923     0.033     2.544     2.494
   131   1 H        0.924     0.062     2.177     2.308
   132   1 H        0.924     0.058     2.228     2.334
   133   1 H        0.803     0.377     0.529     1.143
   134   1 H        0.804     0.375     0.533     1.147
   135   1 H        0.803     0.331     0.635     1.252
   136   1 H        0.803     0.361     0.563     1.179
   137   1 H        0.926     0.047     2.356     2.400
   138   1 H        0.926     0.070     2.085     2.258
   139   1 H        0.926     0.061     2.191     2.315
   140   1 H        0.926     0.074     2.047     2.237
   141   1 H        0.926     0.048     2.347     2.396
   142   1 H        0.926     0.053     2.277     2.360
   143   1 H        0.926     0.054     2.276     2.359
   144   1 H        0.926     0.053     2.288     2.365
   145   1 H        0.924     0.051     2.304     2.374
   146   1 H        0.924     0.053     2.282     2.362
   147   1 H        0.924     0.074     2.046     2.237

 Mol. C6AA /au·bohr⁶  :     216144.770406
 Mol. C8AA /au·bohr⁸  :    4959871.497006
 Mol. α(0) /au        :        702.319259


Wiberg/Mayer (AO) data.
largest (>0.10) Wiberg bond orders for each atom

 ---------------------------------------------------------------------------
     #   Z sym  total        # sym  WBO       # sym  WBO       # sym  WBO
 ---------------------------------------------------------------------------
     1   6 C    3.946 --     6 C    1.392     2 C    1.332    51 O    1.075
     2   6 C    3.969 --     3 C    1.388     1 C    1.332     7 C    0.990
     3   6 C    3.987 --     4 C    1.430     2 C    1.388    13 C    1.000
     4   6 C    3.983 --     3 C    1.430     5 C    1.359    78 H    0.964
     5   6 C    3.944 --     6 C    1.378     4 C    1.359    52 O    1.080
     6   6 C    3.977 --     1 C    1.392     5 C    1.378    79 H    0.961
     7   6 C    3.935 --     2 C    0.990     8 C    0.954    80 H    0.949
                            12 O    0.945
     8   6 C    3.950 --    15 O    0.988     9 C    0.964     7 C    0.954
                            81 H    0.953
     9   6 C    3.926 --    10 C    0.966     8 C    0.964    82 H    0.952
                            17 O    0.939
    10   6 C    3.931 --     9 C    0.966    11 C    0.962    83 H    0.951
                            16 O    0.948
    11   6 C    3.944 --    18 C    0.981    12 O    0.964    10 C    0.962
                            84 H    0.955
    12   8 O    2.081 --    11 C    0.964     7 C    0.945
    13   6 C    3.957 --     3 C    1.000    14 O    0.989    86 H    0.968
                            85 H    0.956
    14   8 O    1.920 --    13 C    0.989    87 H    0.844
    15   8 O    1.940 --     8 C    0.988    88 H    0.829
    16   8 O    2.082 --    20 C    0.983    10 C    0.948
    17   8 O    2.263 --    33 C    1.074     9 C    0.939    35 O    0.138
    18   6 C    3.956 --    19 O    1.010    11 C    0.981    89 H    0.967
                            90 H    0.960
    19   8 O    1.919 --    18 C    1.010    91 H    0.850
    20   6 C    3.923 --    16 O    0.983    21 O    0.960    25 C    0.953
                            92 H    0.948
    21   8 O    2.054 --    20 C    0.960    22 C    0.942
    22   6 C    3.928 --    29 C    0.981    23 C    0.966    93 H    0.956
                            21 O    0.942
    23   6 C    3.960 --    28 O    1.002    22 C    0.966    24 C    0.962
                            94 H    0.956
    24   6 C    3.963 --    26 O    1.005    23 C    0.962    25 C    0.961
                            95 H    0.954
    25   6 C    3.935 --    27 O    0.961    24 C    0.961    20 C    0.953
                            96 H    0.940
    26   8 O    1.936 --    24 C    1.005    97 H    0.858
    27   8 O    2.090 --    53 C    0.980    25 C    0.961
    28   8 O    1.972 --    23 C    1.002    98 H    0.843
    29   6 C    3.924 --    22 C    0.981    99 H    0.960   100 H    0.959
                            30 O    0.957
    30   8 O    2.293 --    31 C    1.064    29 C    0.957    32 O    0.143
    31   6 C    3.902 --    32 O    1.715    30 O    1.064    64 C    1.019
    32   8 O    2.020 --    31 C    1.715    30 O    0.143
    33   6 C    3.895 --    35 O    1.616    34 C    1.093    17 O    1.074
    34   6 C    3.964 --    36 C    1.696    33 C    1.093   101 H    0.957
                            38 C    0.110
    35   8 O    1.958 --    33 C    1.616    17 O    0.138
    36   6 C    3.975 --    34 C    1.696    37 C    1.172   102 H    0.954
    37   6 C    3.986 --    38 C    1.760    36 C    1.172   103 H    0.959
    38   6 C    3.955 --    37 C    1.760    39 C    1.049   104 H    0.952
                            34 C    0.110
    39   6 C    3.985 --    38 C    1.049   105 H    0.967    40 C    0.947
                           106 H    0.940
    40   6 C    3.947 --    41 C    1.005    42 O    0.986   107 H    0.957
                            39 C    0.947
    41   6 C    3.987 --    43 C    1.831    40 C    1.005   108 H    0.965
                            45 C    0.128
    42   8 O    1.934 --    40 C    0.986   109 H    0.860
    43   6 C    3.988 --    41 C    1.831    44 C    1.123   110 H    0.946
    44   6 C    3.990 --    45 C    1.825    43 C    1.123   111 H    0.963
    45   6 C    3.978 --    44 C    1.825    46 C    1.032   112 H    0.947
                            41 C    0.128
    46   6 C    3.996 --    45 C    1.032    47 C    1.006   113 H    0.962
                           114 H    0.953
    47   6 C    3.996 --    48 C    1.008    46 C    1.006   115 H    0.978
                           116 H    0.977
    48   6 C    3.996 --    47 C    1.008    49 C    1.007   117 H    0.976
                           118 H    0.969
    49   6 C    3.997 --    50 C    1.021    48 C    1.007   119 H    0.978
                           120 H    0.976
    50   6 C    3.996 --    49 C    1.021   123 H    0.987   122 H    0.987
                           121 H    0.983
    51   8 O    2.094 --     1 C    1.075   124 H    0.827
    52   8 O    2.075 --     5 C    1.080   125 H    0.836
    53   6 C    3.919 --    27 O    0.980    54 C    0.954    58 O    0.953
                           126 H    0.943
    54   6 C    3.954 --    62 O    0.995    55 C    0.968   127 H    0.957
                            53 C    0.954
    55   6 C    3.963 --    61 O    1.002    56 C    0.969    54 C    0.968
                           128 H    0.960
    56   6 C    3.963 --    60 O    1.001    55 C    0.969    57 C    0.968
                           129 H    0.957
    57   6 C    3.938 --    59 C    0.983    56 C    0.968   130 H    0.958
                            58 O    0.953
    58   8 O    2.054 --    53 C    0.953    57 C    0.953
    59   6 C    3.962 --    63 O    1.014    57 C    0.983   131 H    0.968
                           132 H    0.962
    60   8 O    1.936 --    56 C    1.001   133 H    0.830
    61   8 O    1.925 --    55 C    1.002   134 H    0.842
    62   8 O    1.931 --    54 C    0.995   135 H    0.855
    63   8 O    1.915 --    59 C    1.014   136 H    0.829
    64   6 C    3.984 --    69 C    1.386    65 C    1.371    31 C    1.019
    65   6 C    3.983 --    66 C    1.441    64 C    1.371   137 H    0.961
    66   6 C    3.987 --    67 C    1.446    65 C    1.441   138 H    0.955
    67   6 C    3.986 --    66 C    1.446    68 C    1.375   139 H    0.966
    68   6 C    3.987 --    69 C    1.398    67 C    1.375    70 C    1.050
    69   6 C    3.984 --    68 C    1.398    64 C    1.386   140 H    0.953
    70   6 C    3.988 --    75 C    1.382    71 C    1.371    68 C    1.050
    71   6 C    3.990 --    72 C    1.478    70 C    1.371   141 H    0.966
    72   6 C    3.988 --    71 C    1.478    73 C    1.356   142 H    0.967
                            75 C    0.102
    73   6 C    3.925 --    74 C    1.366    72 C    1.356    76 O    1.040
    74   6 C    3.987 --    75 C    1.462    73 C    1.366   143 H    0.962
    75   6 C    3.990 --    74 C    1.462    70 C    1.382   144 H    0.964
                            72 C    0.102
    76   8 O    2.188 --    73 C    1.040    77 C    0.978
    77   6 C    3.935 --    76 O    0.978   147 H    0.977   146 H    0.976
                           145 H    0.976
    78   1 H    0.995 --     4 C    0.964
    79   1 H    0.994 --     6 C    0.961
    80   1 H    0.997 --     7 C    0.949
    81   1 H    0.997 --     8 C    0.953
    82   1 H    0.996 --     9 C    0.952
    83   1 H    0.996 --    10 C    0.951
    84   1 H    0.997 --    11 C    0.955
    85   1 H    0.999 --    13 C    0.956
    86   1 H    0.996 --    13 C    0.968
    87   1 H    0.889 --    14 O    0.844
    88   1 H    0.879 --    15 O    0.829
    89   1 H    0.996 --    18 C    0.967
    90   1 H    0.997 --    18 C    0.960
    91   1 H    0.866 --    19 O    0.850
    92   1 H    0.998 --    20 C    0.948
    93   1 H    0.996 --    22 C    0.956
    94   1 H    0.993 --    23 C    0.956
    95   1 H    0.998 --    24 C    0.954
    96   1 H    0.994 --    25 C    0.940
    97   1 H    0.876 --    26 O    0.858
    98   1 H    0.890 --    28 O    0.843
    99   1 H    0.992 --    29 C    0.960
   100   1 H    0.988 --    29 C    0.959
   101   1 H    0.991 --    34 C    0.957
   102   1 H    0.996 --    36 C    0.954
   103   1 H    0.995 --    37 C    0.959
   104   1 H    0.995 --    38 C    0.952
   105   1 H    0.994 --    39 C    0.967
   106   1 H    0.985 --    39 C    0.940
   107   1 H    0.995 --    40 C    0.957
   108   1 H    0.998 --    41 C    0.965
   109   1 H    0.896 --    42 O    0.860
   110   1 H    0.996 --    43 C    0.946
   111   1 H    0.999 --    44 C    0.963
   112   1 H    0.997 --    45 C    0.947
   113   1 H    0.997 --    46 C    0.962
   114   1 H    0.996 --    46 C    0.953
   115   1 H    0.999 --    47 C    0.978
   116   1 H    0.999 --    47 C    0.977
   117   1 H    0.999 --    48 C    0.976
   118   1 H    0.999 --    48 C    0.969
   119   1 H    0.999 --    49 C    0.978
   120   1 H    1.000 --    49 C    0.976
   121   1 H    0.999 --    50 C    0.983
   122   1 H    0.998 --    50 C    0.987
   123   1 H    0.999 --    50 C    0.987
   124   1 H    0.879 --    51 O    0.827
   125   1 H    0.854 --    52 O    0.836
   126   1 H    1.000 --    53 C    0.943
   127   1 H    0.997 --    54 C    0.957
   128   1 H    0.999 --    55 C    0.960
   129   1 H    0.996 --    56 C    0.957
   130   1 H    0.999 --    57 C    0.958
   131   1 H    0.996 --    59 C    0.968
   132   1 H    0.996 --    59 C    0.962
   133   1 H    0.858 --    60 O    0.830
   134   1 H    0.859 --    61 O    0.842
   135   1 H    0.890 --    62 O    0.855
   136   1 H    0.870 --    63 O    0.829
   137   1 H    0.997 --    65 C    0.961
   138   1 H    0.994 --    66 C    0.955
   139   1 H    0.996 --    67 C    0.966
   140   1 H    0.995 --    69 C    0.953
   141   1 H    0.997 --    71 C    0.966
   142   1 H    0.997 --    72 C    0.967
   143   1 H    0.997 --    74 C    0.962
   144   1 H    0.997 --    75 C    0.964
   145   1 H    0.997 --    77 C    0.976
   146   1 H    0.997 --    77 C    0.976
   147   1 H    0.994 --    77 C    0.977
 ---------------------------------------------------------------------------

Topologies differ in total number of bonds
Writing topology from bond orders to xtbtopo.mol

molecular dipole:
                 x           y           z       tot (Debye)
 q only:       -3.530       0.819       0.078
   full:       -3.232       0.863      -0.247       8.526
molecular quadrupole (traceless):
                xx          xy          yy          xz          yz          zz
 q only:       18.293     -28.695      -2.067     -19.883       0.701     -16.226
  q+dip:       26.386     -43.878     -17.868     -22.617      -2.686      -8.519
   full:       22.827     -44.601     -14.017     -22.033      -1.774      -8.810


           -------------------------------------------------
          | TOTAL ENERGY             -242.977693772247 Eh   |
          | GRADIENT NORM               0.121371775993 Eh/α |
          | HOMO-LUMO GAP               1.707969396279 eV   |
           -------------------------------------------------

------------------------------------------------------------------------
 * finished run on 2026/06/19 at 18:53:03.557     
------------------------------------------------------------------------
 total:
 * wall-time:     0 d,  0 h,  0 min,  0.326 sec
 *  cpu-time:     0 d,  0 h,  0 min,  4.960 sec
 * ratio c/w:    15.220 speedup
 SCF:
 * wall-time:     0 d,  0 h,  0 min,  0.274 sec
 *  cpu-time:     0 d,  0 h,  0 min,  4.310 sec
 * ratio c/w:    15.714 speedup

normal termination of xtb
