      -----------------------------------------------------------      
     |                   =====================                   |     
     |                           x T B                           |     
     |                   =====================                   |     
     |                         S. Grimme                         |     
     |          Mulliken Center for Theoretical Chemistry        |     
     |                    University of Bonn                     |     
      -----------------------------------------------------------      

   * xtb version 6.7.1 (edcfbbe) compiled by 'albert@albert-system' on 2024-07-22

   xtb is free software: you can redistribute it and/or modify it under
   the terms of the GNU Lesser General Public License as published by
   the Free Software Foundation, either version 3 of the License, or
   (at your option) any later version.
   
   xtb is distributed in the hope that it will be useful,
   but WITHOUT ANY WARRANTY; without even the implied warranty of
   MERCHANTABILITY or FITNESS FOR A PARTICULAR PURPOSE.  See the
   GNU Lesser General Public License for more details.
   
   Cite this work as:
   * C. Bannwarth, E. Caldeweyher, S. Ehlert, A. Hansen, P. Pracht,
     J. Seibert, S. Spicher, S. Grimme, WIREs Comput. Mol. Sci., 2020, 11,
     e01493. DOI: 10.1002/wcms.1493
   
   for GFN2-xTB:
   * C. Bannwarth, S. Ehlert and S. Grimme., J. Chem. Theory Comput., 2019,
     15, 1652-1671. DOI: 10.1021/acs.jctc.8b01176
   for GFN1-xTB:
   * S. Grimme, C. Bannwarth, P. Shushkov, J. Chem. Theory Comput., 2017,
     13, 1989-2009. DOI: 10.1021/acs.jctc.7b00118
   for GFN0-xTB:
   * P. Pracht, E. Caldeweyher, S. Ehlert, S. Grimme, ChemRxiv, 2019, preprint.
     DOI: 10.26434/chemrxiv.8326202.v1
   for GFN-FF:
   * S. Spicher and S. Grimme, Angew. Chem. Int. Ed., 2020, 59, 15665-15673.
     DOI: 10.1002/anie.202004239
   
   for ALPB and GBSA implicit solvation:
   * S. Ehlert, M. Stahn, S. Spicher, S. Grimme, J. Chem. Theory Comput.,
     2021, 17, 4250-4261. DOI: 10.1021/acs.jctc.1c00471
   
   for ddCOSMO and CPCM-X implicit solvation:
   * M. Stahn, S. Ehlert, S. Grimme, J. Phys. Chem. A,
     2023, XX, XXXX-XXXX. DOI: 10.1021/acs.jpca.3c04382
   
   for DFT-D4:
   * E. Caldeweyher, C. Bannwarth and S. Grimme, J. Chem. Phys., 2017,
     147, 034112. DOI: 10.1063/1.4993215
   * E. Caldeweyher, S. Ehlert, A. Hansen, H. Neugebauer, S. Spicher,
     C. Bannwarth and S. Grimme, J. Chem. Phys., 2019, 150, 154122.
     DOI: 10.1063/1.5090222
   * E. Caldeweyher, J.-M. Mewes, S. Ehlert and S. Grimme, Phys. Chem. Chem. Phys.
     2020, 22, 8499-8512. DOI: 10.1039/D0CP00502A
   
   for sTDA-xTB:
   * S. Grimme and C. Bannwarth, J. Chem. Phys., 2016, 145, 054103.
     DOI: 10.1063/1.4959605
   
   in the mass-spec context:
   * V. Asgeirsson, C. Bauer and S. Grimme, Chem. Sci., 2017, 8, 4879.
     DOI: 10.1039/c7sc00601b
   * J. Koopman and S. Grimme, ACS Omega 2019, 4, 12, 15120-15133.
     DOI: 10.1021/acsomega.9b02011
   
   for metadynamics refer to:
   * S. Grimme, J. Chem. Theory Comput., 2019, 155, 2847-2862
     DOI: 10.1021/acs.jctc.9b00143
   
   for SPH calculations refer to:
   * S. Spicher and S. Grimme, J. Chem. Theory Comput., 2021, 17, 1701-1714
     DOI: 10.1021/acs.jctc.0c01306
   
   for ONIOM refer to:
   * C. Plett, A. Katbashev, S. Ehlert, S. Grimme, M. Bursch,
     Phys. Chem. Chem. Phys., 2023, 25, 17860-17868. DOI: 10.1039/D3CP02178E
   
   for DIPRO refer to:
   * J. Kohn, N. Gildemeister, S. Grimme, D. Fazzi, A. Hansen,
     J. Chem. Phys., 2023, just accepted.
   
   for PTB refer to:
   * S. Grimme, M. Mueller, A. Hansen, J. Chem. Phys., 2023, 158, 124111.
     DOI: 10.1063/5.0137838
   
   with help from (in alphabetical order)
   P. Atkinson, C. Bannwarth, F. Bohle, G. Brandenburg, E. Caldeweyher
   M. Checinski, S. Dohm, S. Ehlert, S. Ehrlich, I. Gerasimov, C. Hölzer
   A. Katbashev, J. Kohn, J. Koopman, C. Lavigne, S. Lehtola, F. März, M. Müller,
   F. Musil, H. Neugebauer, J. Pisarek, C. Plett, P. Pracht, F. Pultar,
   J. Seibert, P. Shushkov, S. Spicher, M. Stahn, M. Steiner, T. Strunk,
   J. Stückrath, T. Rose, and J. Unsleber
   
 * started run on 2026/06/19 at 18:53:02.480     
   ID    Z sym.   atoms
    1    6 C      1-11, 13, 18, 20, 22-25, 29, 31, 33, 34, 36-41, 43-50,
                  53-57, 59, 64-75, 77
    2    8 O      12, 14-17, 19, 21, 26-28, 30, 32, 35, 42, 51, 52, 58,
                  60-63, 76
    3    1 H      78-147

           -------------------------------------------------
          |                Calculation Setup                |
           -------------------------------------------------

          program call               : xtb PAPU-0089/conf01.xyz --gfn 2 --alpb water --chrg 0 --uhf 0 --namespace PAPU-0089/conf01_water
          hostname                   : cpu10
          calculation namespace      : PAPU-0089/conf01_water
          coordinate file            : PAPU-0089/conf01.xyz
          omp threads                :                    16


           -------------------------------------------------
          |                 G F N 2 - x T B                 |
           -------------------------------------------------

        Reference                      10.1021/acs.jctc.8b01176
      * Hamiltonian:
        H0-scaling (s, p, d)           1.850000    2.230000    2.230000
        zeta-weighting                 0.500000
      * Dispersion:
        s8                             2.700000
        a1                             0.520000
        a2                             5.000000
        s9                             5.000000
      * Repulsion:
        kExp                           1.500000    1.000000
        rExp                           1.000000
      * Coulomb:
        alpha                          2.000000
        third order                    shell-resolved
        anisotropic                    true
        a3                             3.000000
        a5                             4.000000
        cn-shift                       1.200000
        cn-exp                         4.000000
        max-rad                        5.000000

      * Solvation model:               ALPB
        Solvent                        water
        Parameter file                 internal GFN2-xTB/ALPB
        Dielectric constant                8.0200E+01
        Reference state                gsolv [1 M gas/solution]
        Free energy shift                  1.0808E-03 Eh       6.7819E-01 kcal/mol
        Temperature                        2.9815E+02 K
        Density                            1.0000E+00 kg/L
        Solvent mass                       1.8000E+01 g/mol
        Interaction kernel             P16
        Born radius scaling (c1)           1.4744E+00
        Born radii integrator          GBOBC
        Born offset                        0.0000E+00 a0       0.0000E+00 AA
        H-bond correction              true
        Ion screening                  false
        Surface tension                    1.0000E-05 Eh       1.5569E+01 dyn/cm
        Grid points                               230 per atom

          ...................................................
          :                      SETUP                      :
          :.................................................:
          :  # basis functions                 378          :
          :  # atomic orbitals                 378          :
          :  # shells                          224          :
          :  # electrons                       422          :
          :  max. iterations                   250          :
          :  Hamiltonian                  GFN2-xTB          :
          :  restarted?                      false          :
          :  GBSA solvation                   true          :
          :  PC potential                    false          :
          :  electronic temp.          300.0000000     K    :
          :  accuracy                    1.0000000          :
          :  -> integral cutoff          0.2500000E+02      :
          :  -> integral neglect         0.1000000E-07      :
          :  -> SCF convergence          0.1000000E-05 Eh   :
          :  -> wf. convergence          0.1000000E-03 e    :
          :  Broyden damping             0.4000000          :
          :  net charge                          0          :
          :  unpaired electrons                  0          :
          ...................................................

 iter      E             dE          RMSdq      gap      omega  full diag
   1   -245.3527500 -0.245353E+03  0.445E+00    2.26       0.0  T
   2   -245.6071772 -0.254427E+00  0.243E+00    1.79       1.0  T
   3   -245.5846337  0.225436E-01  0.106E+00    1.87       1.0  T
   4   -245.6288540 -0.442203E-01  0.348E-01    1.65       1.0  T
   5   -245.6369757 -0.812178E-02  0.135E-01    1.65       1.0  T
   6   -245.6379012 -0.925450E-03  0.676E-02    1.64       1.0  T
   7   -245.6380426 -0.141446E-03  0.308E-02    1.65       1.0  T
   8   -245.6380779 -0.352944E-04  0.135E-02    1.65       1.0  T
   9   -245.6380845 -0.658159E-05  0.619E-03    1.66       1.3  T
  10   -245.6380857 -0.114318E-05  0.347E-03    1.65       2.4  T
  11   -245.6380861 -0.445177E-06  0.199E-03    1.65       4.2  T
  12   -245.6380863 -0.172195E-06  0.842E-04    1.65       9.8  T
  13   -245.6380863 -0.390986E-07  0.389E-04    1.65      21.2  T

   *** convergence criteria satisfied after 13 iterations ***

         #    Occupation            Energy/Eh            Energy/eV
      -------------------------------------------------------------
         1        2.0000           -0.7710737             -20.9820
       ...           ...                  ...                  ...
       205        2.0000           -0.4076709             -11.0933
       206        2.0000           -0.4067975             -11.0695
       207        2.0000           -0.4011386             -10.9155
       208        2.0000           -0.3997995             -10.8791
       209        2.0000           -0.3858406             -10.4993
       210        2.0000           -0.3807338             -10.3603
       211        2.0000           -0.3691611             -10.0454 (HOMO)
       212                         -0.3083895              -8.3917 (LUMO)
       213                         -0.2925762              -7.9614
       214                         -0.2542785              -6.9193
       215                         -0.2394432              -6.5156
       216                         -0.2342500              -6.3743
       ...                                ...                  ...
       378                          0.6887734              18.7425
      -------------------------------------------------------------
                  HL-Gap            0.0607716 Eh            1.6537 eV
             Fermi-level           -0.3387753 Eh           -9.2185 eV

 SCC (total)                   0 d,  0 h,  0 min,  0.272 sec
 SCC setup                      ...        0 min,  0.004 sec (  1.313%)
 Dispersion                     ...        0 min,  0.004 sec (  1.573%)
 classical contributions        ...        0 min,  0.000 sec (  0.084%)
 integral evaluation            ...        0 min,  0.013 sec (  4.742%)
 iterations                     ...        0 min,  0.208 sec ( 76.503%)
 molecular gradient             ...        0 min,  0.041 sec ( 14.984%)
 printout                       ...        0 min,  0.002 sec (  0.787%)

         :::::::::::::::::::::::::::::::::::::::::::::::::::::
         ::                     SUMMARY                     ::
         :::::::::::::::::::::::::::::::::::::::::::::::::::::
         :: total energy            -242.976583631710 Eh    ::
         :: total w/o Gsasa/hb      -242.952761248011 Eh    ::
         :: gradient norm              0.118484057636 Eh/a0 ::
         :: HOMO-LUMO gap              1.653678173260 eV    ::
         ::.................................................::
         :: SCC energy              -245.623027927758 Eh    ::
         :: -> isotropic ES            0.559937253661 Eh    ::
         :: -> anisotropic ES         -0.028254650153 Eh    ::
         :: -> anisotropic XC          0.023459652503 Eh    ::
         :: -> dispersion             -0.203474376848 Eh    ::
         :: -> Gsolv                  -0.078920078426 Eh    ::
         ::    -> Gelec               -0.055097694726 Eh    ::
         ::    -> Gsasa                0.009232886322 Eh    ::
         ::    -> Ghb                 -0.034136029719 Eh    ::
         ::    -> Gshift               0.001080759698 Eh    ::
         :: repulsion energy           2.646444296048 Eh    ::
         :: add. restraining           0.000000000000 Eh    ::
         :: total charge              -0.000000000000 e     ::
         :::::::::::::::::::::::::::::::::::::::::::::::::::::

           -------------------------------------------------
          |                Property Printout                |
           -------------------------------------------------

    * Orbital Energies and Occupations

         #    Occupation            Energy/Eh            Energy/eV
      -------------------------------------------------------------
         1        2.0000           -0.7710737             -20.9820
       ...           ...                  ...                  ...
       199        2.0000           -0.4198377             -11.4244
       200        2.0000           -0.4166224             -11.3369
       201        2.0000           -0.4152118             -11.2985
       202        2.0000           -0.4149375             -11.2910
       203        2.0000           -0.4136777             -11.2567
       204        2.0000           -0.4117783             -11.2051
       205        2.0000           -0.4076709             -11.0933
       206        2.0000           -0.4067975             -11.0695
       207        2.0000           -0.4011386             -10.9155
       208        2.0000           -0.3997995             -10.8791
       209        2.0000           -0.3858406             -10.4993
       210        2.0000           -0.3807338             -10.3603
       211        2.0000           -0.3691611             -10.0454 (HOMO)
       212                         -0.3083895              -8.3917 (LUMO)
       213                         -0.2925762              -7.9614
       214                         -0.2542785              -6.9193
       215                         -0.2394432              -6.5156
       216                         -0.2342500              -6.3743
       217                         -0.2267582              -6.1704
       218                         -0.2259833              -6.1493
       219                         -0.2240056              -6.0955
       220                         -0.2184845              -5.9453
       221                         -0.1980847              -5.3902
       222                         -0.1569883              -4.2719
       ...                                ...                  ...
       378                          0.6887734              18.7425
      -------------------------------------------------------------
                  HL-Gap            0.0607716 Eh            1.6537 eV
             Fermi-level           -0.3387753 Eh           -9.2185 eV

     #   Z          covCN         q      C6AA      α(0)
     1   6 C        2.843     0.138    24.974     8.190
     2   6 C        2.969    -0.050    29.236     8.869
     3   6 C        2.964    -0.003    28.088     8.693
     4   6 C        2.929    -0.074    29.842     8.959
     5   6 C        2.838     0.148    24.785     8.159
     6   6 C        2.919    -0.100    30.520     9.059
     7   6 C        3.745     0.105    18.923     6.205
     8   6 C        3.719     0.100    19.045     6.234
     9   6 C        3.751     0.100    18.996     6.216
    10   6 C        3.745     0.097    19.041     6.225
    11   6 C        3.741     0.097    19.049     6.227
    12   8 O        1.695    -0.346    19.813     6.010
    13   6 C        3.682     0.078    19.484     6.321
    14   8 O        1.652    -0.501    22.917     6.462
    15   8 O        1.651    -0.497    22.827     6.450
    16   8 O        1.698    -0.345    19.805     6.009
    17   8 O        1.702    -0.297    18.947     5.877
    18   6 C        3.675     0.076    19.534     6.333
    19   8 O        1.654    -0.495    22.780     6.443
    20   6 C        3.640     0.241    17.173     5.959
    21   8 O        1.697    -0.368    20.216     6.070
    22   6 C        3.732     0.094    19.116     6.241
    23   6 C        3.721     0.078    19.393     6.290
    24   6 C        3.724     0.088    19.216     6.260
    25   6 C        3.752     0.089    19.163     6.243
    26   8 O        1.653    -0.457    21.991     6.330
    27   8 O        1.700    -0.338    19.674     5.989
    28   8 O        1.652    -0.462    22.096     6.346
    29   6 C        3.716     0.069    19.543     6.316
    30   8 O        1.703    -0.263    18.359     5.785
    31   6 C        2.737     0.351    21.042     7.510
    32   8 O        0.857    -0.447    22.633     6.378
    33   6 C        2.728     0.359    20.915     7.487
    34   6 C        2.896    -0.085    30.133     9.000
    35   8 O        0.857    -0.487    23.503     6.500
    36   6 C        2.903    -0.001    28.051     8.684
    37   6 C        2.898    -0.048    29.192     8.859
    38   6 C        2.897    -0.007    28.192     8.706
    39   6 C        3.806    -0.076    21.942     6.668
    40   6 C        3.728     0.116    18.783     6.187
    41   6 C        2.894    -0.061    29.526     8.909
    42   8 O        1.651    -0.499    22.863     6.455
    43   6 C        2.899    -0.045    29.124     8.848
    44   6 C        2.899    -0.051    29.271     8.871
    45   6 C        2.896    -0.047    29.162     8.854
    46   6 C        3.805    -0.064    21.721     6.635
    47   6 C        3.800    -0.059    21.631     6.622
    48   6 C        3.800    -0.057    21.607     6.618
    49   6 C        3.799    -0.053    21.519     6.605
    50   6 C        3.751    -0.105    22.578     6.776
    51   8 O        1.656    -0.429    21.427     6.249
    52   8 O        1.657    -0.451    21.865     6.312
    53   6 C        3.642     0.236    17.249     5.972
    54   6 C        3.721     0.092    19.170     6.253
    55   6 C        3.723     0.099    19.047     6.232
    56   6 C        3.721     0.094    19.124     6.245
    57   6 C        3.738     0.098    19.043     6.227
    58   8 O        1.695    -0.360    20.083     6.050
    59   6 C        3.674     0.073    19.581     6.341
    60   8 O        1.653    -0.490    22.683     6.429
    61   8 O        1.654    -0.491    22.703     6.432
    62   8 O        1.652    -0.480    22.463     6.398
    63   8 O        1.654    -0.496    22.799     6.446
    64   6 C        2.971    -0.024    28.599     8.772
    65   6 C        2.930    -0.022    28.558     8.764
    66   6 C        2.920    -0.031    28.779     8.797
    67   6 C        2.928    -0.027    28.684     8.783
    68   6 C        2.975     0.020    27.557     8.611
    69   6 C        2.936    -0.040    28.996     8.831
    70   6 C        2.977    -0.002    28.078     8.692
    71   6 C        2.923    -0.035    28.881     8.813
    72   6 C        2.921    -0.058    29.430     8.896
    73   6 C        2.866     0.137    25.011     8.198
    74   6 C        2.919    -0.063    29.575     8.918
    75   6 C        2.924    -0.035    28.876     8.812
    76   8 O        1.702    -0.310    19.174     5.912
    77   6 C        3.649     0.026    20.457     6.498
    78   1 H        0.926     0.067     2.119     2.276
    79   1 H        0.926     0.076     2.022     2.224
    80   1 H        0.924     0.046     2.374     2.409
    81   1 H        0.923     0.057     2.236     2.338
    82   1 H        0.924     0.063     2.164     2.301
    83   1 H        0.924     0.066     2.127     2.281
    84   1 H        0.923     0.051     2.302     2.373
    85   1 H        0.924     0.025     2.662     2.552
    86   1 H        0.924     0.057     2.234     2.338
    87   1 H        0.802     0.333     0.630     1.247
    88   1 H        0.803     0.348     0.594     1.211
    89   1 H        0.924     0.062     2.181     2.309
    90   1 H        0.924     0.055     2.255     2.349
    91   1 H        0.804     0.366     0.552     1.167
    92   1 H        0.923     0.041     2.437     2.441
    93   1 H        0.923     0.057     2.230     2.335
    94   1 H        0.923     0.080     1.975     2.198
    95   1 H        0.923     0.066     2.133     2.284
    96   1 H        0.924     0.067     2.116     2.275
    97   1 H        0.803     0.331     0.636     1.253
    98   1 H        0.803     0.335     0.626     1.243
    99   1 H        0.924     0.085     1.928     2.171
   100   1 H        0.924     0.106     1.734     2.059
   101   1 H        0.926     0.094     1.845     2.124
   102   1 H        0.926     0.068     2.108     2.270
   103   1 H        0.926     0.069     2.095     2.263
   104   1 H        0.926     0.077     2.008     2.216
   105   1 H        0.924     0.068     2.106     2.270
   106   1 H        0.924     0.073     2.050     2.239
   107   1 H        0.923     0.048     2.345     2.395
   108   1 H        0.926     0.036     2.496     2.471
   109   1 H        0.803     0.324     0.653     1.269
   110   1 H        0.926     0.061     2.192     2.315
   111   1 H        0.926     0.030     2.581     2.512
   112   1 H        0.926     0.053     2.288     2.365
   113   1 H        0.924     0.049     2.339     2.392
   114   1 H        0.924     0.051     2.307     2.375
   115   1 H        0.924     0.030     2.590     2.517
   116   1 H        0.924     0.029     2.604     2.523
   117   1 H        0.924     0.032     2.561     2.503
   118   1 H        0.924     0.024     2.673     2.557
   119   1 H        0.924     0.029     2.601     2.522
   120   1 H        0.924     0.022     2.707     2.573
   121   1 H        0.924     0.031     2.572     2.508
   122   1 H        0.924     0.036     2.507     2.476
   123   1 H        0.924     0.036     2.496     2.471
   124   1 H        0.803     0.347     0.596     1.213
   125   1 H        0.804     0.381     0.520     1.133
   126   1 H        0.923     0.018     2.758     2.597
   127   1 H        0.923     0.059     2.211     2.325
   128   1 H        0.923     0.036     2.510     2.477
   129   1 H        0.923     0.055     2.255     2.348
   130   1 H        0.923     0.034     2.536     2.490
   131   1 H        0.924     0.061     2.183     2.310
   132   1 H        0.924     0.058     2.221     2.331
   133   1 H        0.803     0.377     0.529     1.143
   134   1 H        0.804     0.375     0.533     1.147
   135   1 H        0.803     0.331     0.635     1.252
   136   1 H        0.803     0.360     0.564     1.180
   137   1 H        0.926     0.045     2.389     2.417
   138   1 H        0.926     0.070     2.081     2.256
   139   1 H        0.926     0.061     2.192     2.315
   140   1 H        0.926     0.074     2.042     2.235
   141   1 H        0.926     0.048     2.348     2.396
   142   1 H        0.926     0.053     2.278     2.360
   143   1 H        0.926     0.054     2.275     2.359
   144   1 H        0.926     0.053     2.280     2.361
   145   1 H        0.924     0.051     2.302     2.373
   146   1 H        0.924     0.053     2.283     2.363
   147   1 H        0.924     0.073     2.048     2.238

 Mol. C6AA /au·bohr⁶  :     216072.694186
 Mol. C8AA /au·bohr⁸  :    4959082.382347
 Mol. α(0) /au        :        702.201965


Wiberg/Mayer (AO) data.
largest (>0.10) Wiberg bond orders for each atom

 ---------------------------------------------------------------------------
     #   Z sym  total        # sym  WBO       # sym  WBO       # sym  WBO
 ---------------------------------------------------------------------------
     1   6 C    3.946 --     6 C    1.392     2 C    1.333    51 O    1.074
     2   6 C    3.969 --     3 C    1.388     1 C    1.333     7 C    0.990
     3   6 C    3.987 --     4 C    1.430     2 C    1.388    13 C    1.000
     4   6 C    3.983 --     3 C    1.430     5 C    1.359    78 H    0.964
     5   6 C    3.944 --     6 C    1.378     4 C    1.359    52 O    1.080
     6   6 C    3.977 --     1 C    1.392     5 C    1.378    79 H    0.961
     7   6 C    3.935 --     2 C    0.990     8 C    0.954    80 H    0.949
                            12 O    0.945
     8   6 C    3.951 --    15 O    0.988     9 C    0.964     7 C    0.954
                            81 H    0.954
     9   6 C    3.926 --    10 C    0.966     8 C    0.964    82 H    0.953
                            17 O    0.938
    10   6 C    3.931 --     9 C    0.966    11 C    0.962    83 H    0.951
                            16 O    0.949
    11   6 C    3.944 --    18 C    0.981    12 O    0.964    10 C    0.962
                            84 H    0.954
    12   8 O    2.081 --    11 C    0.964     7 C    0.945
    13   6 C    3.957 --     3 C    1.000    14 O    0.989    86 H    0.968
                            85 H    0.956
    14   8 O    1.919 --    13 C    0.989    87 H    0.844
    15   8 O    1.939 --     8 C    0.988    88 H    0.828
    16   8 O    2.083 --    20 C    0.983    10 C    0.949
    17   8 O    2.266 --    33 C    1.075     9 C    0.938    35 O    0.139
    18   6 C    3.956 --    19 O    1.010    11 C    0.981    89 H    0.967
                            90 H    0.960
    19   8 O    1.919 --    18 C    1.010    91 H    0.850
    20   6 C    3.923 --    16 O    0.983    21 O    0.959    25 C    0.953
                            92 H    0.948
    21   8 O    2.053 --    20 C    0.959    22 C    0.942
    22   6 C    3.928 --    29 C    0.981    23 C    0.967    93 H    0.956
                            21 O    0.942
    23   6 C    3.959 --    28 O    0.998    22 C    0.967    94 H    0.956
                            24 C    0.955
    24   6 C    3.960 --    26 O    1.011    25 C    0.960    95 H    0.955
                            23 C    0.955
    25   6 C    3.936 --    27 O    0.962    24 C    0.960    20 C    0.953
                            96 H    0.939
    26   8 O    1.959 --    24 C    1.011    97 H    0.860
    27   8 O    2.087 --    53 C    0.980    25 C    0.962
    28   8 O    1.969 --    23 C    0.998    98 H    0.838
    29   6 C    3.924 --    22 C    0.981    99 H    0.960   100 H    0.959
                            30 O    0.957
    30   8 O    2.291 --    31 C    1.061    29 C    0.957    32 O    0.143
    31   6 C    3.902 --    32 O    1.716    30 O    1.061    64 C    1.018
    32   8 O    2.022 --    31 C    1.716    30 O    0.143
    33   6 C    3.894 --    35 O    1.625    34 C    1.086    17 O    1.075
    34   6 C    3.965 --    36 C    1.702    33 C    1.086   101 H    0.957
                            38 C    0.112
    35   8 O    1.965 --    33 C    1.625    17 O    0.139
    36   6 C    3.976 --    34 C    1.702    37 C    1.167   102 H    0.953
    37   6 C    3.986 --    38 C    1.759    36 C    1.167   103 H    0.958
    38   6 C    3.955 --    37 C    1.759    39 C    1.050   104 H    0.951
                            34 C    0.112
    39   6 C    3.985 --    38 C    1.050   105 H    0.966    40 C    0.950
                           106 H    0.937
    40   6 C    3.948 --    41 C    1.005    42 O    0.986   107 H    0.957
                            39 C    0.950
    41   6 C    3.988 --    43 C    1.831    40 C    1.005   108 H    0.965
                            45 C    0.129
    42   8 O    1.931 --    40 C    0.986   109 H    0.856
    43   6 C    3.988 --    41 C    1.831    44 C    1.123   110 H    0.947
    44   6 C    3.990 --    45 C    1.825    43 C    1.123   111 H    0.963
    45   6 C    3.979 --    44 C    1.825    46 C    1.031   112 H    0.949
                            41 C    0.129
    46   6 C    3.996 --    45 C    1.031    47 C    1.006   113 H    0.959
                           114 H    0.955
    47   6 C    3.996 --    48 C    1.008    46 C    1.006   115 H    0.977
                           116 H    0.977
    48   6 C    3.996 --    47 C    1.008    49 C    1.008   117 H    0.976
                           118 H    0.967
    49   6 C    3.997 --    50 C    1.021    48 C    1.008   119 H    0.977
                           120 H    0.977
    50   6 C    3.996 --    49 C    1.021   123 H    0.987   122 H    0.987
                           121 H    0.983
    51   8 O    2.094 --     1 C    1.074   124 H    0.827
    52   8 O    2.076 --     5 C    1.080   125 H    0.836
    53   6 C    3.920 --    27 O    0.980    54 C    0.956    58 O    0.954
                           126 H    0.943
    54   6 C    3.954 --    62 O    0.994    55 C    0.969   127 H    0.956
                            53 C    0.956
    55   6 C    3.963 --    61 O    1.002    56 C    0.969    54 C    0.969
                           128 H    0.959
    56   6 C    3.963 --    60 O    1.001    55 C    0.969    57 C    0.968
                           129 H    0.957
    57   6 C    3.937 --    59 C    0.983    56 C    0.968   130 H    0.957
                            58 O    0.953
    58   8 O    2.055 --    53 C    0.954    57 C    0.953
    59   6 C    3.961 --    63 O    1.014    57 C    0.983   131 H    0.968
                           132 H    0.962
    60   8 O    1.936 --    56 C    1.001   133 H    0.830
    61   8 O    1.925 --    55 C    1.002   134 H    0.842
    62   8 O    1.931 --    54 C    0.994   135 H    0.857
    63   8 O    1.915 --    59 C    1.014   136 H    0.830
    64   6 C    3.983 --    69 C    1.386    65 C    1.372    31 C    1.018
    65   6 C    3.983 --    66 C    1.442    64 C    1.372   137 H    0.961
    66   6 C    3.986 --    67 C    1.446    65 C    1.442   138 H    0.955
    67   6 C    3.985 --    66 C    1.446    68 C    1.375   139 H    0.966
    68   6 C    3.987 --    69 C    1.398    67 C    1.375    70 C    1.049
    69   6 C    3.984 --    68 C    1.398    64 C    1.386   140 H    0.953
    70   6 C    3.988 --    75 C    1.383    71 C    1.372    68 C    1.049
    71   6 C    3.990 --    72 C    1.478    70 C    1.372   141 H    0.966
    72   6 C    3.988 --    71 C    1.478    73 C    1.356   142 H    0.967
                            75 C    0.102
    73   6 C    3.925 --    74 C    1.366    72 C    1.356    76 O    1.040
    74   6 C    3.987 --    75 C    1.462    73 C    1.366   143 H    0.962
    75   6 C    3.990 --    74 C    1.462    70 C    1.383   144 H    0.964
                            72 C    0.102
    76   8 O    2.188 --    73 C    1.040    77 C    0.978
    77   6 C    3.935 --    76 O    0.978   147 H    0.977   146 H    0.976
                           145 H    0.976
    78   1 H    0.995 --     4 C    0.964
    79   1 H    0.994 --     6 C    0.961
    80   1 H    0.997 --     7 C    0.949
    81   1 H    0.997 --     8 C    0.954
    82   1 H    0.996 --     9 C    0.953
    83   1 H    0.996 --    10 C    0.951
    84   1 H    0.997 --    11 C    0.954
    85   1 H    0.999 --    13 C    0.956
    86   1 H    0.996 --    13 C    0.968
    87   1 H    0.889 --    14 O    0.844
    88   1 H    0.879 --    15 O    0.828
    89   1 H    0.996 --    18 C    0.967
    90   1 H    0.997 --    18 C    0.960
    91   1 H    0.866 --    19 O    0.850
    92   1 H    0.998 --    20 C    0.948
    93   1 H    0.996 --    22 C    0.956
    94   1 H    0.993 --    23 C    0.956
    95   1 H    0.995 --    24 C    0.955
    96   1 H    0.995 --    25 C    0.939
    97   1 H    0.891 --    26 O    0.860
    98   1 H    0.888 --    28 O    0.838
    99   1 H    0.992 --    29 C    0.960
   100   1 H    0.988 --    29 C    0.959
   101   1 H    0.991 --    34 C    0.957
   102   1 H    0.995 --    36 C    0.953
   103   1 H    0.995 --    37 C    0.958
   104   1 H    0.994 --    38 C    0.951
   105   1 H    0.994 --    39 C    0.966
   106   1 H    0.984 --    39 C    0.937
   107   1 H    0.995 --    40 C    0.957
   108   1 H    0.998 --    41 C    0.965
   109   1 H    0.895 --    42 O    0.856
   110   1 H    0.996 --    43 C    0.947
   111   1 H    0.999 --    44 C    0.963
   112   1 H    0.997 --    45 C    0.949
   113   1 H    0.997 --    46 C    0.959
   114   1 H    0.996 --    46 C    0.955
   115   1 H    0.998 --    47 C    0.977
   116   1 H    0.999 --    47 C    0.977
   117   1 H    0.999 --    48 C    0.976
   118   1 H    0.999 --    48 C    0.967
   119   1 H    0.999 --    49 C    0.977
   120   1 H    1.000 --    49 C    0.977
   121   1 H    0.999 --    50 C    0.983
   122   1 H    0.998 --    50 C    0.987
   123   1 H    0.999 --    50 C    0.987
   124   1 H    0.879 --    51 O    0.827
   125   1 H    0.854 --    52 O    0.836
   126   1 H    1.000 --    53 C    0.943
   127   1 H    0.996 --    54 C    0.956
   128   1 H    0.999 --    55 C    0.959
   129   1 H    0.996 --    56 C    0.957
   130   1 H    0.999 --    57 C    0.957
   131   1 H    0.996 --    59 C    0.968
   132   1 H    0.996 --    59 C    0.962
   133   1 H    0.858 --    60 O    0.830
   134   1 H    0.859 --    61 O    0.842
   135   1 H    0.890 --    62 O    0.857
   136   1 H    0.870 --    63 O    0.830
   137   1 H    0.997 --    65 C    0.961
   138   1 H    0.994 --    66 C    0.955
   139   1 H    0.996 --    67 C    0.966
   140   1 H    0.994 --    69 C    0.953
   141   1 H    0.997 --    71 C    0.966
   142   1 H    0.997 --    72 C    0.967
   143   1 H    0.997 --    74 C    0.962
   144   1 H    0.997 --    75 C    0.964
   145   1 H    0.997 --    77 C    0.976
   146   1 H    0.997 --    77 C    0.976
   147   1 H    0.994 --    77 C    0.977
 ---------------------------------------------------------------------------

Topologies differ in total number of bonds
Writing topology from bond orders to xtbtopo.mol

molecular dipole:
                 x           y           z       tot (Debye)
 q only:       -4.209       1.448       0.088
   full:       -4.134       1.707      -0.187      11.378
molecular quadrupole (traceless):
                xx          xy          yy          xz          yz          zz
 q only:       24.124     -23.099      -9.579     -22.132       2.582     -14.545
  q+dip:       34.011     -36.332     -27.634     -25.690      -0.447      -6.377
   full:       30.405     -37.075     -23.804     -25.150       0.519      -6.601


           -------------------------------------------------
          | TOTAL ENERGY             -242.976583631710 Eh   |
          | GRADIENT NORM               0.118484057636 Eh/α |
          | HOMO-LUMO GAP               1.653678173260 eV   |
           -------------------------------------------------

------------------------------------------------------------------------
 * finished run on 2026/06/19 at 18:53:02.876     
------------------------------------------------------------------------
 total:
 * wall-time:     0 d,  0 h,  0 min,  0.396 sec
 *  cpu-time:     0 d,  0 h,  0 min,  5.518 sec
 * ratio c/w:    13.950 speedup
 SCF:
 * wall-time:     0 d,  0 h,  0 min,  0.273 sec
 *  cpu-time:     0 d,  0 h,  0 min,  4.259 sec
 * ratio c/w:    15.628 speedup

normal termination of xtb
