      -----------------------------------------------------------      
     |                   =====================                   |     
     |                           x T B                           |     
     |                   =====================                   |     
     |                         S. Grimme                         |     
     |          Mulliken Center for Theoretical Chemistry        |     
     |                    University of Bonn                     |     
      -----------------------------------------------------------      

   * xtb version 6.7.1 (edcfbbe) compiled by 'albert@albert-system' on 2024-07-22

   xtb is free software: you can redistribute it and/or modify it under
   the terms of the GNU Lesser General Public License as published by
   the Free Software Foundation, either version 3 of the License, or
   (at your option) any later version.
   
   xtb is distributed in the hope that it will be useful,
   but WITHOUT ANY WARRANTY; without even the implied warranty of
   MERCHANTABILITY or FITNESS FOR A PARTICULAR PURPOSE.  See the
   GNU Lesser General Public License for more details.
   
   Cite this work as:
   * C. Bannwarth, E. Caldeweyher, S. Ehlert, A. Hansen, P. Pracht,
     J. Seibert, S. Spicher, S. Grimme, WIREs Comput. Mol. Sci., 2020, 11,
     e01493. DOI: 10.1002/wcms.1493
   
   for GFN2-xTB:
   * C. Bannwarth, S. Ehlert and S. Grimme., J. Chem. Theory Comput., 2019,
     15, 1652-1671. DOI: 10.1021/acs.jctc.8b01176
   for GFN1-xTB:
   * S. Grimme, C. Bannwarth, P. Shushkov, J. Chem. Theory Comput., 2017,
     13, 1989-2009. DOI: 10.1021/acs.jctc.7b00118
   for GFN0-xTB:
   * P. Pracht, E. Caldeweyher, S. Ehlert, S. Grimme, ChemRxiv, 2019, preprint.
     DOI: 10.26434/chemrxiv.8326202.v1
   for GFN-FF:
   * S. Spicher and S. Grimme, Angew. Chem. Int. Ed., 2020, 59, 15665-15673.
     DOI: 10.1002/anie.202004239
   
   for ALPB and GBSA implicit solvation:
   * S. Ehlert, M. Stahn, S. Spicher, S. Grimme, J. Chem. Theory Comput.,
     2021, 17, 4250-4261. DOI: 10.1021/acs.jctc.1c00471
   
   for ddCOSMO and CPCM-X implicit solvation:
   * M. Stahn, S. Ehlert, S. Grimme, J. Phys. Chem. A,
     2023, XX, XXXX-XXXX. DOI: 10.1021/acs.jpca.3c04382
   
   for DFT-D4:
   * E. Caldeweyher, C. Bannwarth and S. Grimme, J. Chem. Phys., 2017,
     147, 034112. DOI: 10.1063/1.4993215
   * E. Caldeweyher, S. Ehlert, A. Hansen, H. Neugebauer, S. Spicher,
     C. Bannwarth and S. Grimme, J. Chem. Phys., 2019, 150, 154122.
     DOI: 10.1063/1.5090222
   * E. Caldeweyher, J.-M. Mewes, S. Ehlert and S. Grimme, Phys. Chem. Chem. Phys.
     2020, 22, 8499-8512. DOI: 10.1039/D0CP00502A
   
   for sTDA-xTB:
   * S. Grimme and C. Bannwarth, J. Chem. Phys., 2016, 145, 054103.
     DOI: 10.1063/1.4959605
   
   in the mass-spec context:
   * V. Asgeirsson, C. Bauer and S. Grimme, Chem. Sci., 2017, 8, 4879.
     DOI: 10.1039/c7sc00601b
   * J. Koopman and S. Grimme, ACS Omega 2019, 4, 12, 15120-15133.
     DOI: 10.1021/acsomega.9b02011
   
   for metadynamics refer to:
   * S. Grimme, J. Chem. Theory Comput., 2019, 155, 2847-2862
     DOI: 10.1021/acs.jctc.9b00143
   
   for SPH calculations refer to:
   * S. Spicher and S. Grimme, J. Chem. Theory Comput., 2021, 17, 1701-1714
     DOI: 10.1021/acs.jctc.0c01306
   
   for ONIOM refer to:
   * C. Plett, A. Katbashev, S. Ehlert, S. Grimme, M. Bursch,
     Phys. Chem. Chem. Phys., 2023, 25, 17860-17868. DOI: 10.1039/D3CP02178E
   
   for DIPRO refer to:
   * J. Kohn, N. Gildemeister, S. Grimme, D. Fazzi, A. Hansen,
     J. Chem. Phys., 2023, just accepted.
   
   for PTB refer to:
   * S. Grimme, M. Mueller, A. Hansen, J. Chem. Phys., 2023, 158, 124111.
     DOI: 10.1063/5.0137838
   
   with help from (in alphabetical order)
   P. Atkinson, C. Bannwarth, F. Bohle, G. Brandenburg, E. Caldeweyher
   M. Checinski, S. Dohm, S. Ehlert, S. Ehrlich, I. Gerasimov, C. Hölzer
   A. Katbashev, J. Kohn, J. Koopman, C. Lavigne, S. Lehtola, F. März, M. Müller,
   F. Musil, H. Neugebauer, J. Pisarek, C. Plett, P. Pracht, F. Pultar,
   J. Seibert, P. Shushkov, S. Spicher, M. Stahn, M. Steiner, T. Strunk,
   J. Stückrath, T. Rose, and J. Unsleber
   
 * started run on 2026/06/19 at 18:53:03.570     
   ID    Z sym.   atoms
    1    6 C      1-11, 13, 18, 20, 22-25, 29, 31, 33, 34, 36-41, 43-50,
                  53-57, 59, 64-75, 77
    2    8 O      12, 14-17, 19, 21, 26-28, 30, 32, 35, 42, 51, 52, 58,
                  60-63, 76
    3    1 H      78-147

           -------------------------------------------------
          |                Calculation Setup                |
           -------------------------------------------------

          program call               : xtb PAPU-0089/conf02.xyz --gfn 2 --alpb octanol --chrg 0 --uhf 0 --namespace PAPU-0089/conf02_octanol
          hostname                   : cpu10
          calculation namespace      : PAPU-0089/conf02_octanol
          coordinate file            : PAPU-0089/conf02.xyz
          omp threads                :                    16


           -------------------------------------------------
          |                 G F N 2 - x T B                 |
           -------------------------------------------------

        Reference                      10.1021/acs.jctc.8b01176
      * Hamiltonian:
        H0-scaling (s, p, d)           1.850000    2.230000    2.230000
        zeta-weighting                 0.500000
      * Dispersion:
        s8                             2.700000
        a1                             0.520000
        a2                             5.000000
        s9                             5.000000
      * Repulsion:
        kExp                           1.500000    1.000000
        rExp                           1.000000
      * Coulomb:
        alpha                          2.000000
        third order                    shell-resolved
        anisotropic                    true
        a3                             3.000000
        a5                             4.000000
        cn-shift                       1.200000
        cn-exp                         4.000000
        max-rad                        5.000000

      * Solvation model:               ALPB
        Solvent                        octanol
        Parameter file                 internal GFN2-xTB/ALPB
        Dielectric constant                9.8629E+00
        Reference state                gsolv [1 M gas/solution]
        Free energy shift                  2.3397E-03 Eh       1.4682E+00 kcal/mol
        Temperature                        2.9815E+02 K
        Density                            8.3000E-01 kg/L
        Solvent mass                       1.3023E+02 g/mol
        Interaction kernel             P16
        Born radius scaling (c1)           1.5898E+00
        Born radii integrator          GBOBC
        Born offset                        0.0000E+00 a0       0.0000E+00 AA
        H-bond correction              true
        Ion screening                  false
        Surface tension                    1.0000E-05 Eh       1.5569E+01 dyn/cm
        Grid points                               230 per atom

          ...................................................
          :                      SETUP                      :
          :.................................................:
          :  # basis functions                 378          :
          :  # atomic orbitals                 378          :
          :  # shells                          224          :
          :  # electrons                       422          :
          :  max. iterations                   250          :
          :  Hamiltonian                  GFN2-xTB          :
          :  restarted?                      false          :
          :  GBSA solvation                   true          :
          :  PC potential                    false          :
          :  electronic temp.          300.0000000     K    :
          :  accuracy                    1.0000000          :
          :  -> integral cutoff          0.2500000E+02      :
          :  -> integral neglect         0.1000000E-07      :
          :  -> SCF convergence          0.1000000E-05 Eh   :
          :  -> wf. convergence          0.1000000E-03 e    :
          :  Broyden damping             0.4000000          :
          :  net charge                          0          :
          :  unpaired electrons                  0          :
          ...................................................

 iter      E             dE          RMSdq      gap      omega  full diag
   1   -245.3705010 -0.245371E+03  0.441E+00    2.19       0.0  T
   2   -245.6288384 -0.258337E+00  0.243E+00    1.69       1.0  T
   3   -245.6059666  0.228717E-01  0.109E+00    1.77       1.0  T
   4   -245.6520543 -0.460876E-01  0.339E-01    1.60       1.0  T
   5   -245.6607759 -0.872158E-02  0.140E-01    1.56       1.0  T
   6   -245.6620502 -0.127438E-02  0.631E-02    1.58       1.0  T
   7   -245.6621772 -0.127000E-03  0.277E-02    1.59       1.0  T
   8   -245.6622035 -0.262727E-04  0.117E-02    1.59       1.0  T
   9   -245.6622081 -0.461054E-05  0.584E-03    1.59       1.4  T
  10   -245.6622100 -0.190042E-05  0.294E-03    1.59       2.8  T
  11   -245.6622104 -0.379030E-06  0.150E-03    1.59       5.5  T
  12   -245.6622105 -0.614198E-07  0.677E-04    1.59      12.2  T
  13   -245.6622105 -0.205521E-07  0.288E-04    1.59      28.6  T

   *** convergence criteria satisfied after 13 iterations ***

         #    Occupation            Energy/Eh            Energy/eV
      -------------------------------------------------------------
         1        2.0000           -0.7809721             -21.2513
       ...           ...                  ...                  ...
       205        2.0000           -0.4115426             -11.1986
       206        2.0000           -0.4108740             -11.1805
       207        2.0000           -0.4083742             -11.1124
       208        2.0000           -0.4019506             -10.9376
       209        2.0000           -0.3933129             -10.7026
       210        2.0000           -0.3852630             -10.4835
       211        2.0000           -0.3726467             -10.1402 (HOMO)
       212                         -0.3143332              -8.5534 (LUMO)
       213                         -0.3000362              -8.1644
       214                         -0.2615960              -7.1184
       215                         -0.2430479              -6.6137
       216                         -0.2414651              -6.5706
       ...                                ...                  ...
       378                          0.6862528              18.6739
      -------------------------------------------------------------
                  HL-Gap            0.0583135 Eh            1.5868 eV
             Fermi-level           -0.3434899 Eh           -9.3468 eV

 SCC (total)                   0 d,  0 h,  0 min,  0.270 sec
 SCC setup                      ...        0 min,  0.004 sec (  1.295%)
 Dispersion                     ...        0 min,  0.005 sec (  1.792%)
 classical contributions        ...        0 min,  0.000 sec (  0.046%)
 integral evaluation            ...        0 min,  0.012 sec (  4.297%)
 iterations                     ...        0 min,  0.208 sec ( 76.777%)
 molecular gradient             ...        0 min,  0.041 sec ( 14.988%)
 printout                       ...        0 min,  0.002 sec (  0.790%)

         :::::::::::::::::::::::::::::::::::::::::::::::::::::
         ::                     SUMMARY                     ::
         :::::::::::::::::::::::::::::::::::::::::::::::::::::
         :: total energy            -242.999888207204 Eh    ::
         :: total w/o Gsasa/hb      -242.930975966357 Eh    ::
         :: gradient norm              0.122702271721 Eh/a0 ::
         :: HOMO-LUMO gap              1.586792098161 eV    ::
         ::.................................................::
         :: SCC energy              -245.647155455261 Eh    ::
         :: -> isotropic ES            0.537647856797 Eh    ::
         :: -> anisotropic ES         -0.027486225330 Eh    ::
         :: -> anisotropic XC          0.022215786458 Eh    ::
         :: -> dispersion             -0.203675339639 Eh    ::
         :: -> Gsolv                  -0.097112072821 Eh    ::
         ::    -> Gelec               -0.028199831975 Eh    ::
         ::    -> Gsasa               -0.030708862266 Eh    ::
         ::    -> Ghb                 -0.040543047956 Eh    ::
         ::    -> Gshift               0.002339669376 Eh    ::
         :: repulsion energy           2.647267248057 Eh    ::
         :: add. restraining           0.000000000000 Eh    ::
         :: total charge               0.000000000000 e     ::
         :::::::::::::::::::::::::::::::::::::::::::::::::::::

           -------------------------------------------------
          |                Property Printout                |
           -------------------------------------------------

    * Orbital Energies and Occupations

         #    Occupation            Energy/Eh            Energy/eV
      -------------------------------------------------------------
         1        2.0000           -0.7809721             -21.2513
       ...           ...                  ...                  ...
       199        2.0000           -0.4265372             -11.6067
       200        2.0000           -0.4236692             -11.5286
       201        2.0000           -0.4216216             -11.4729
       202        2.0000           -0.4214680             -11.4687
       203        2.0000           -0.4169929             -11.3470
       204        2.0000           -0.4159159             -11.3176
       205        2.0000           -0.4115426             -11.1986
       206        2.0000           -0.4108740             -11.1805
       207        2.0000           -0.4083742             -11.1124
       208        2.0000           -0.4019506             -10.9376
       209        2.0000           -0.3933129             -10.7026
       210        2.0000           -0.3852630             -10.4835
       211        2.0000           -0.3726467             -10.1402 (HOMO)
       212                         -0.3143332              -8.5534 (LUMO)
       213                         -0.3000362              -8.1644
       214                         -0.2615960              -7.1184
       215                         -0.2430479              -6.6137
       216                         -0.2414651              -6.5706
       217                         -0.2339806              -6.3669
       218                         -0.2305503              -6.2736
       219                         -0.2291657              -6.2359
       220                         -0.2257768              -6.1437
       221                         -0.2041465              -5.5551
       222                         -0.1615865              -4.3970
       ...                                ...                  ...
       378                          0.6862528              18.6739
      -------------------------------------------------------------
                  HL-Gap            0.0583135 Eh            1.5868 eV
             Fermi-level           -0.3434899 Eh           -9.3468 eV

     #   Z          covCN         q      C6AA      α(0)
     1   6 C        2.843     0.141    24.926     8.182
     2   6 C        2.969    -0.056    29.389     8.892
     3   6 C        2.964    -0.002    28.075     8.691
     4   6 C        2.929    -0.076    29.887     8.966
     5   6 C        2.838     0.153    24.683     8.142
     6   6 C        2.919    -0.105    30.640     9.077
     7   6 C        3.744     0.100    18.992     6.217
     8   6 C        3.718     0.094    19.136     6.249
     9   6 C        3.752     0.095    19.072     6.228
    10   6 C        3.745     0.094    19.097     6.234
    11   6 C        3.740     0.091    19.142     6.242
    12   8 O        1.695    -0.349    19.880     6.020
    13   6 C        3.682     0.074    19.535     6.329
    14   8 O        1.652    -0.489    22.668     6.427
    15   8 O        1.651    -0.494    22.763     6.440
    16   8 O        1.698    -0.337    19.652     5.985
    17   8 O        1.702    -0.306    19.103     5.901
    18   6 C        3.675     0.069    19.647     6.351
    19   8 O        1.654    -0.475    22.352     6.382
    20   6 C        3.640     0.240    17.195     5.963
    21   8 O        1.696    -0.361    20.094     6.052
    22   6 C        3.732     0.085    19.248     6.262
    23   6 C        3.721     0.080    19.358     6.284
    24   6 C        3.724     0.089    19.207     6.258
    25   6 C        3.754     0.088    19.177     6.244
    26   8 O        1.654    -0.465    22.156     6.354
    27   8 O        1.700    -0.335    19.621     5.980
    28   8 O        1.652    -0.449    21.815     6.305
    29   6 C        3.716     0.063    19.640     6.331
    30   8 O        1.703    -0.267    18.425     5.795
    31   6 C        2.736     0.350    21.056     7.513
    32   8 O        0.857    -0.425    22.192     6.316
    33   6 C        2.728     0.359    20.915     7.487
    34   6 C        2.896    -0.095    30.388     9.038
    35   8 O        0.858    -0.479    23.319     6.474
    36   6 C        2.903     0.005    27.905     8.662
    37   6 C        2.898    -0.044    29.102     8.845
    38   6 C        2.897    -0.005    28.140     8.698
    39   6 C        3.806    -0.081    22.048     6.685
    40   6 C        3.728     0.114    18.803     6.191
    41   6 C        2.894    -0.065    29.627     8.924
    42   8 O        1.651    -0.488    22.644     6.424
    43   6 C        2.899    -0.046    29.139     8.851
    44   6 C        2.898    -0.053    29.318     8.878
    45   6 C        2.896    -0.048    29.196     8.859
    46   6 C        3.805    -0.065    21.745     6.639
    47   6 C        3.801    -0.059    21.639     6.623
    48   6 C        3.800    -0.059    21.641     6.623
    49   6 C        3.799    -0.054    21.539     6.608
    50   6 C        3.751    -0.108    22.624     6.783
    51   8 O        1.656    -0.428    21.399     6.245
    52   8 O        1.657    -0.431    21.466     6.254
    53   6 C        3.643     0.231    17.305     5.981
    54   6 C        3.721     0.088    19.225     6.262
    55   6 C        3.724     0.095    19.116     6.244
    56   6 C        3.722     0.089    19.207     6.259
    57   6 C        3.738     0.093    19.114     6.238
    58   8 O        1.696    -0.352    19.925     6.027
    59   6 C        3.674     0.069    19.645     6.351
    60   8 O        1.653    -0.480    22.477     6.400
    61   8 O        1.654    -0.479    22.437     6.394
    62   8 O        1.652    -0.480    22.459     6.397
    63   8 O        1.654    -0.482    22.504     6.404
    64   6 C        2.971    -0.029    28.710     8.789
    65   6 C        2.930    -0.026    28.646     8.777
    66   6 C        2.920    -0.035    28.869     8.811
    67   6 C        2.928    -0.029    28.732     8.791
    68   6 C        2.975     0.019    27.580     8.614
    69   6 C        2.937    -0.043    29.066     8.842
    70   6 C        2.977    -0.005    28.136     8.701
    71   6 C        2.923    -0.037    28.911     8.818
    72   6 C        2.921    -0.059    29.464     8.901
    73   6 C        2.866     0.140    24.943     8.187
    74   6 C        2.919    -0.067    29.659     8.931
    75   6 C        2.924    -0.036    28.905     8.817
    76   8 O        1.702    -0.297    18.939     5.876
    77   6 C        3.649     0.025    20.464     6.499
    78   1 H        0.926     0.078     1.999     2.211
    79   1 H        0.926     0.077     2.008     2.216
    80   1 H        0.924     0.045     2.382     2.413
    81   1 H        0.924     0.053     2.285     2.364
    82   1 H        0.924     0.063     2.166     2.301
    83   1 H        0.924     0.063     2.166     2.302
    84   1 H        0.923     0.054     2.273     2.358
    85   1 H        0.924     0.023     2.691     2.565
    86   1 H        0.924     0.063     2.161     2.299
    87   1 H        0.802     0.329     0.640     1.257
    88   1 H        0.803     0.348     0.593     1.210
    89   1 H        0.924     0.068     2.108     2.271
    90   1 H        0.924     0.059     2.207     2.323
    91   1 H        0.804     0.352     0.583     1.200
    92   1 H        0.923     0.038     2.476     2.461
    93   1 H        0.923     0.057     2.229     2.335
    94   1 H        0.923     0.085     1.928     2.171
    95   1 H        0.923     0.043     2.408     2.427
    96   1 H        0.924     0.066     2.134     2.284
    97   1 H        0.804     0.356     0.575     1.192
    98   1 H        0.802     0.320     0.664     1.280
    99   1 H        0.924     0.093     1.854     2.129
   100   1 H        0.924     0.103     1.756     2.072
   101   1 H        0.926     0.099     1.791     2.093
   102   1 H        0.926     0.057     2.233     2.337
   103   1 H        0.926     0.076     2.026     2.226
   104   1 H        0.926     0.066     2.134     2.284
   105   1 H        0.924     0.071     2.076     2.253
   106   1 H        0.924     0.077     2.010     2.217
   107   1 H        0.923     0.053     2.279     2.361
   108   1 H        0.926     0.043     2.415     2.430
   109   1 H        0.803     0.319     0.666     1.282
   110   1 H        0.926     0.052     2.297     2.370
   111   1 H        0.926     0.036     2.506     2.475
   112   1 H        0.926     0.051     2.310     2.377
   113   1 H        0.924     0.050     2.322     2.383
   114   1 H        0.924     0.053     2.282     2.363
   115   1 H        0.924     0.032     2.561     2.503
   116   1 H        0.924     0.028     2.620     2.531
   117   1 H        0.924     0.033     2.539     2.492
   118   1 H        0.924     0.022     2.703     2.571
   119   1 H        0.924     0.031     2.577     2.511
   120   1 H        0.923     0.024     2.673     2.557
   121   1 H        0.924     0.029     2.602     2.522
   122   1 H        0.924     0.037     2.485     2.465
   123   1 H        0.924     0.038     2.473     2.459
   124   1 H        0.803     0.339     0.616     1.233
   125   1 H        0.804     0.362     0.560     1.176
   126   1 H        0.923     0.020     2.732     2.585
   127   1 H        0.923     0.058     2.221     2.331
   128   1 H        0.923     0.036     2.505     2.475
   129   1 H        0.923     0.056     2.247     2.344
   130   1 H        0.923     0.030     2.587     2.515
   131   1 H        0.924     0.065     2.139     2.287
   132   1 H        0.924     0.056     2.248     2.345
   133   1 H        0.803     0.368     0.547     1.162
   134   1 H        0.804     0.365     0.554     1.169
   135   1 H        0.803     0.335     0.624     1.241
   136   1 H        0.803     0.356     0.574     1.190
   137   1 H        0.926     0.045     2.389     2.417
   138   1 H        0.926     0.071     2.071     2.250
   139   1 H        0.926     0.066     2.132     2.283
   140   1 H        0.926     0.067     2.118     2.276
   141   1 H        0.926     0.049     2.332     2.388
   142   1 H        0.926     0.059     2.211     2.325
   143   1 H        0.926     0.056     2.240     2.341
   144   1 H        0.926     0.054     2.272     2.357
   145   1 H        0.924     0.050     2.317     2.380
   146   1 H        0.924     0.051     2.303     2.373
   147   1 H        0.924     0.072     2.068     2.249

 Mol. C6AA /au·bohr⁶  :     215984.362987
 Mol. C8AA /au·bohr⁸  :    4958102.333769
 Mol. α(0) /au        :        702.111136


Wiberg/Mayer (AO) data.
largest (>0.10) Wiberg bond orders for each atom

 ---------------------------------------------------------------------------
     #   Z sym  total        # sym  WBO       # sym  WBO       # sym  WBO
 ---------------------------------------------------------------------------
     1   6 C    3.944 --     6 C    1.392     2 C    1.333    51 O    1.071
     2   6 C    3.967 --     3 C    1.386     1 C    1.333     7 C    0.989
     3   6 C    3.987 --     4 C    1.431     2 C    1.386    13 C    1.000
     4   6 C    3.982 --     3 C    1.431     5 C    1.358    78 H    0.963
     5   6 C    3.944 --     6 C    1.378     4 C    1.358    52 O    1.081
     6   6 C    3.977 --     1 C    1.392     5 C    1.378    79 H    0.960
     7   6 C    3.934 --     2 C    0.989     8 C    0.954    80 H    0.949
                            12 O    0.945
     8   6 C    3.952 --    15 O    0.990     9 C    0.964    81 H    0.954
                             7 C    0.954
     9   6 C    3.927 --    10 C    0.966     8 C    0.964    82 H    0.952
                            17 O    0.940
    10   6 C    3.933 --     9 C    0.966    11 C    0.961    83 H    0.951
                            16 O    0.951
    11   6 C    3.942 --    18 C    0.980    12 O    0.963    10 C    0.961
                            84 H    0.954
    12   8 O    2.079 --    11 C    0.963     7 C    0.945
    13   6 C    3.958 --     3 C    1.000    14 O    0.992    86 H    0.967
                            85 H    0.956
    14   8 O    1.927 --    13 C    0.992    87 H    0.848
    15   8 O    1.939 --     8 C    0.990    88 H    0.827
    16   8 O    2.087 --    20 C    0.985    10 C    0.951
    17   8 O    2.256 --    33 C    1.067     9 C    0.940    35 O    0.137
    18   6 C    3.956 --    19 O    1.013    11 C    0.980    89 H    0.966
                            90 H    0.959
    19   8 O    1.932 --    18 C    1.013    91 H    0.860
    20   6 C    3.924 --    16 O    0.985    21 O    0.960    25 C    0.952
                            92 H    0.948
    21   8 O    2.058 --    20 C    0.960    22 C    0.945
    22   6 C    3.931 --    29 C    0.981    23 C    0.966    93 H    0.956
                            21 O    0.945
    23   6 C    3.959 --    28 O    1.001    22 C    0.966    24 C    0.962
                            94 H    0.956
    24   6 C    3.965 --    26 O    1.008    23 C    0.962    25 C    0.960
                            95 H    0.954
    25   6 C    3.938 --    27 O    0.964    24 C    0.960    20 C    0.952
                            96 H    0.941
    26   8 O    1.937 --    24 C    1.008    97 H    0.855
    27   8 O    2.092 --    53 C    0.980    25 C    0.964
    28   8 O    1.975 --    23 C    1.001    98 H    0.850
    29   6 C    3.924 --    22 C    0.981   100 H    0.960    30 O    0.959
                            99 H    0.958
    30   8 O    2.286 --    31 C    1.056    29 C    0.959    32 O    0.143
    31   6 C    3.904 --    32 O    1.730    30 O    1.056    64 C    1.018
    32   8 O    2.036 --    31 C    1.730    30 O    0.143
    33   6 C    3.894 --    35 O    1.625    34 C    1.093    17 O    1.067
    34   6 C    3.962 --    36 C    1.695    33 C    1.093   101 H    0.956
                            38 C    0.110
    35   8 O    1.968 --    33 C    1.625    17 O    0.137
    36   6 C    3.976 --    34 C    1.695    37 C    1.172   102 H    0.955
    37   6 C    3.985 --    38 C    1.758    36 C    1.172   103 H    0.957
    38   6 C    3.955 --    37 C    1.758    39 C    1.050   104 H    0.953
                            34 C    0.110
    39   6 C    3.984 --    38 C    1.050   105 H    0.967    40 C    0.947
                           106 H    0.938
    40   6 C    3.947 --    41 C    1.005    42 O    0.988   107 H    0.956
                            39 C    0.947
    41   6 C    3.987 --    43 C    1.831    40 C    1.005   108 H    0.965
                            45 C    0.128
    42   8 O    1.938 --    40 C    0.988   109 H    0.862
    43   6 C    3.989 --    41 C    1.831    44 C    1.123   110 H    0.947
    44   6 C    3.990 --    45 C    1.824    43 C    1.123   111 H    0.963
    45   6 C    3.979 --    44 C    1.824    46 C    1.032   112 H    0.947
                            41 C    0.128
    46   6 C    3.996 --    45 C    1.032    47 C    1.006   113 H    0.961
                           114 H    0.952
    47   6 C    3.996 --    48 C    1.008    46 C    1.006   115 H    0.978
                           116 H    0.976
    48   6 C    3.996 --    47 C    1.008    49 C    1.007   117 H    0.976
                           118 H    0.970
    49   6 C    3.997 --    50 C    1.021    48 C    1.007   119 H    0.977
                           120 H    0.976
    50   6 C    3.996 --    49 C    1.021   123 H    0.987   122 H    0.987
                           121 H    0.983
    51   8 O    2.095 --     1 C    1.071   124 H    0.832
    52   8 O    2.091 --     5 C    1.081   125 H    0.850
    53   6 C    3.920 --    27 O    0.980    58 O    0.955    54 C    0.954
                           126 H    0.943
    54   6 C    3.956 --    62 O    0.997    55 C    0.968   127 H    0.956
                            53 C    0.954
    55   6 C    3.964 --    61 O    1.003    56 C    0.969    54 C    0.968
                           128 H    0.959
    56   6 C    3.963 --    60 O    1.001    55 C    0.969    57 C    0.968
                           129 H    0.957
    57   6 C    3.939 --    59 C    0.982    56 C    0.968   130 H    0.958
                            58 O    0.955
    58   8 O    2.059 --    53 C    0.955    57 C    0.955
    59   6 C    3.963 --    63 O    1.018    57 C    0.982   131 H    0.967
                           132 H    0.962
    60   8 O    1.942 --    56 C    1.001   133 H    0.836
    61   8 O    1.934 --    55 C    1.003   134 H    0.849
    62   8 O    1.931 --    54 C    0.997   135 H    0.852
    63   8 O    1.923 --    59 C    1.018   136 H    0.833
    64   6 C    3.984 --    69 C    1.387    65 C    1.371    31 C    1.018
    65   6 C    3.983 --    66 C    1.441    64 C    1.371   137 H    0.961
    66   6 C    3.986 --    67 C    1.447    65 C    1.441   138 H    0.955
    67   6 C    3.985 --    66 C    1.447    68 C    1.374   139 H    0.965
    68   6 C    3.986 --    69 C    1.397    67 C    1.374    70 C    1.050
    69   6 C    3.985 --    68 C    1.397    64 C    1.387   140 H    0.953
    70   6 C    3.987 --    75 C    1.381    71 C    1.370    68 C    1.050
    71   6 C    3.990 --    72 C    1.479    70 C    1.370   141 H    0.966
    72   6 C    3.987 --    71 C    1.479    73 C    1.355   142 H    0.966
                            75 C    0.102
    73   6 C    3.927 --    74 C    1.365    72 C    1.355    76 O    1.046
    74   6 C    3.987 --    75 C    1.463    73 C    1.365   143 H    0.962
    75   6 C    3.990 --    74 C    1.463    70 C    1.381   144 H    0.963
                            72 C    0.102
    76   8 O    2.198 --    73 C    1.046    77 C    0.981
    77   6 C    3.938 --    76 O    0.981   147 H    0.977   146 H    0.976
                           145 H    0.976
    78   1 H    0.993 --     4 C    0.963
    79   1 H    0.993 --     6 C    0.960
    80   1 H    0.998 --     7 C    0.949
    81   1 H    0.997 --     8 C    0.954
    82   1 H    0.996 --     9 C    0.952
    83   1 H    0.996 --    10 C    0.951
    84   1 H    0.997 --    11 C    0.954
    85   1 H    0.999 --    13 C    0.956
    86   1 H    0.996 --    13 C    0.967
    87   1 H    0.892 --    14 O    0.848
    88   1 H    0.879 --    15 O    0.827
    89   1 H    0.995 --    18 C    0.966
    90   1 H    0.996 --    18 C    0.959
    91   1 H    0.876 --    19 O    0.860
    92   1 H    0.998 --    20 C    0.948
    93   1 H    0.996 --    22 C    0.956
    94   1 H    0.993 --    23 C    0.956
    95   1 H    0.998 --    24 C    0.954
    96   1 H    0.995 --    25 C    0.941
    97   1 H    0.873 --    26 O    0.855
    98   1 H    0.897 --    28 O    0.850
    99   1 H    0.991 --    29 C    0.958
   100   1 H    0.988 --    29 C    0.960
   101   1 H    0.989 --    34 C    0.956
   102   1 H    0.997 --    36 C    0.955
   103   1 H    0.994 --    37 C    0.957
   104   1 H    0.996 --    38 C    0.953
   105   1 H    0.994 --    39 C    0.967
   106   1 H    0.984 --    39 C    0.938
   107   1 H    0.994 --    40 C    0.956
   108   1 H    0.998 --    41 C    0.965
   109   1 H    0.898 --    42 O    0.862
   110   1 H    0.997 --    43 C    0.947
   111   1 H    0.998 --    44 C    0.963
   112   1 H    0.997 --    45 C    0.947
   113   1 H    0.997 --    46 C    0.961
   114   1 H    0.996 --    46 C    0.952
   115   1 H    0.998 --    47 C    0.978
   116   1 H    0.999 --    47 C    0.976
   117   1 H    0.999 --    48 C    0.976
   118   1 H    0.999 --    48 C    0.970
   119   1 H    0.999 --    49 C    0.977
   120   1 H    0.999 --    49 C    0.976
   121   1 H    0.999 --    50 C    0.983
   122   1 H    0.998 --    50 C    0.987
   123   1 H    0.999 --    50 C    0.987
   124   1 H    0.885 --    51 O    0.832
   125   1 H    0.868 --    52 O    0.850
   126   1 H    1.000 --    53 C    0.943
   127   1 H    0.997 --    54 C    0.956
   128   1 H    0.999 --    55 C    0.959
   129   1 H    0.996 --    56 C    0.957
   130   1 H    0.999 --    57 C    0.958
   131   1 H    0.995 --    59 C    0.967
   132   1 H    0.996 --    59 C    0.962
   133   1 H    0.864 --    60 O    0.836
   134   1 H    0.866 --    61 O    0.849
   135   1 H    0.887 --    62 O    0.852
   136   1 H    0.873 --    63 O    0.833
   137   1 H    0.997 --    65 C    0.961
   138   1 H    0.994 --    66 C    0.955
   139   1 H    0.995 --    67 C    0.965
   140   1 H    0.995 --    69 C    0.953
   141   1 H    0.997 --    71 C    0.966
   142   1 H    0.996 --    72 C    0.966
   143   1 H    0.996 --    74 C    0.962
   144   1 H    0.997 --    75 C    0.963
   145   1 H    0.997 --    77 C    0.976
   146   1 H    0.997 --    77 C    0.976
   147   1 H    0.994 --    77 C    0.977
 ---------------------------------------------------------------------------

Topologies differ in total number of bonds
Writing topology from bond orders to xtbtopo.mol

molecular dipole:
                 x           y           z       tot (Debye)
 q only:       -3.491       0.754       0.249
   full:       -3.221       0.838      -0.132       8.467
molecular quadrupole (traceless):
                xx          xy          yy          xz          yz          zz
 q only:       20.387     -25.236      -4.389     -20.592       0.695     -15.998
  q+dip:       27.999     -41.554     -19.523     -23.166      -2.626      -8.476
   full:       24.435     -42.279     -15.668     -22.572      -1.702      -8.767


           -------------------------------------------------
          | TOTAL ENERGY             -242.999888207204 Eh   |
          | GRADIENT NORM               0.122702271721 Eh/α |
          | HOMO-LUMO GAP               1.586792098161 eV   |
           -------------------------------------------------

------------------------------------------------------------------------
 * finished run on 2026/06/19 at 18:53:03.895     
------------------------------------------------------------------------
 total:
 * wall-time:     0 d,  0 h,  0 min,  0.324 sec
 *  cpu-time:     0 d,  0 h,  0 min,  5.009 sec
 * ratio c/w:    15.448 speedup
 SCF:
 * wall-time:     0 d,  0 h,  0 min,  0.271 sec
 *  cpu-time:     0 d,  0 h,  0 min,  4.307 sec
 * ratio c/w:    15.872 speedup

normal termination of xtb
