      -----------------------------------------------------------      
     |                   =====================                   |     
     |                           x T B                           |     
     |                   =====================                   |     
     |                         S. Grimme                         |     
     |          Mulliken Center for Theoretical Chemistry        |     
     |                    University of Bonn                     |     
      -----------------------------------------------------------      

   * xtb version 6.7.1 (edcfbbe) compiled by 'albert@albert-system' on 2024-07-22

   xtb is free software: you can redistribute it and/or modify it under
   the terms of the GNU Lesser General Public License as published by
   the Free Software Foundation, either version 3 of the License, or
   (at your option) any later version.
   
   xtb is distributed in the hope that it will be useful,
   but WITHOUT ANY WARRANTY; without even the implied warranty of
   MERCHANTABILITY or FITNESS FOR A PARTICULAR PURPOSE.  See the
   GNU Lesser General Public License for more details.
   
   Cite this work as:
   * C. Bannwarth, E. Caldeweyher, S. Ehlert, A. Hansen, P. Pracht,
     J. Seibert, S. Spicher, S. Grimme, WIREs Comput. Mol. Sci., 2020, 11,
     e01493. DOI: 10.1002/wcms.1493
   
   for GFN2-xTB:
   * C. Bannwarth, S. Ehlert and S. Grimme., J. Chem. Theory Comput., 2019,
     15, 1652-1671. DOI: 10.1021/acs.jctc.8b01176
   for GFN1-xTB:
   * S. Grimme, C. Bannwarth, P. Shushkov, J. Chem. Theory Comput., 2017,
     13, 1989-2009. DOI: 10.1021/acs.jctc.7b00118
   for GFN0-xTB:
   * P. Pracht, E. Caldeweyher, S. Ehlert, S. Grimme, ChemRxiv, 2019, preprint.
     DOI: 10.26434/chemrxiv.8326202.v1
   for GFN-FF:
   * S. Spicher and S. Grimme, Angew. Chem. Int. Ed., 2020, 59, 15665-15673.
     DOI: 10.1002/anie.202004239
   
   for ALPB and GBSA implicit solvation:
   * S. Ehlert, M. Stahn, S. Spicher, S. Grimme, J. Chem. Theory Comput.,
     2021, 17, 4250-4261. DOI: 10.1021/acs.jctc.1c00471
   
   for ddCOSMO and CPCM-X implicit solvation:
   * M. Stahn, S. Ehlert, S. Grimme, J. Phys. Chem. A,
     2023, XX, XXXX-XXXX. DOI: 10.1021/acs.jpca.3c04382
   
   for DFT-D4:
   * E. Caldeweyher, C. Bannwarth and S. Grimme, J. Chem. Phys., 2017,
     147, 034112. DOI: 10.1063/1.4993215
   * E. Caldeweyher, S. Ehlert, A. Hansen, H. Neugebauer, S. Spicher,
     C. Bannwarth and S. Grimme, J. Chem. Phys., 2019, 150, 154122.
     DOI: 10.1063/1.5090222
   * E. Caldeweyher, J.-M. Mewes, S. Ehlert and S. Grimme, Phys. Chem. Chem. Phys.
     2020, 22, 8499-8512. DOI: 10.1039/D0CP00502A
   
   for sTDA-xTB:
   * S. Grimme and C. Bannwarth, J. Chem. Phys., 2016, 145, 054103.
     DOI: 10.1063/1.4959605
   
   in the mass-spec context:
   * V. Asgeirsson, C. Bauer and S. Grimme, Chem. Sci., 2017, 8, 4879.
     DOI: 10.1039/c7sc00601b
   * J. Koopman and S. Grimme, ACS Omega 2019, 4, 12, 15120-15133.
     DOI: 10.1021/acsomega.9b02011
   
   for metadynamics refer to:
   * S. Grimme, J. Chem. Theory Comput., 2019, 155, 2847-2862
     DOI: 10.1021/acs.jctc.9b00143
   
   for SPH calculations refer to:
   * S. Spicher and S. Grimme, J. Chem. Theory Comput., 2021, 17, 1701-1714
     DOI: 10.1021/acs.jctc.0c01306
   
   for ONIOM refer to:
   * C. Plett, A. Katbashev, S. Ehlert, S. Grimme, M. Bursch,
     Phys. Chem. Chem. Phys., 2023, 25, 17860-17868. DOI: 10.1039/D3CP02178E
   
   for DIPRO refer to:
   * J. Kohn, N. Gildemeister, S. Grimme, D. Fazzi, A. Hansen,
     J. Chem. Phys., 2023, just accepted.
   
   for PTB refer to:
   * S. Grimme, M. Mueller, A. Hansen, J. Chem. Phys., 2023, 158, 124111.
     DOI: 10.1063/5.0137838
   
   with help from (in alphabetical order)
   P. Atkinson, C. Bannwarth, F. Bohle, G. Brandenburg, E. Caldeweyher
   M. Checinski, S. Dohm, S. Ehlert, S. Ehrlich, I. Gerasimov, C. Hölzer
   A. Katbashev, J. Kohn, J. Koopman, C. Lavigne, S. Lehtola, F. März, M. Müller,
   F. Musil, H. Neugebauer, J. Pisarek, C. Plett, P. Pracht, F. Pultar,
   J. Seibert, P. Shushkov, S. Spicher, M. Stahn, M. Steiner, T. Strunk,
   J. Stückrath, T. Rose, and J. Unsleber
   
 * started run on 2026/06/19 at 18:53:03.909     
   ID    Z sym.   atoms
    1    6 C      1-11, 13, 18, 20, 22-25, 29, 31, 33, 34, 36-41, 43-50,
                  53-57, 59, 64-75, 77
    2    8 O      12, 14-17, 19, 21, 26-28, 30, 32, 35, 42, 51, 52, 58,
                  60-63, 76
    3    1 H      78-147

           -------------------------------------------------
          |                Calculation Setup                |
           -------------------------------------------------

          program call               : xtb PAPU-0089/conf03.xyz --gfn 2 --alpb water --chrg 0 --uhf 0 --namespace PAPU-0089/conf03_water
          hostname                   : cpu10
          calculation namespace      : PAPU-0089/conf03_water
          coordinate file            : PAPU-0089/conf03.xyz
          omp threads                :                    16


           -------------------------------------------------
          |                 G F N 2 - x T B                 |
           -------------------------------------------------

        Reference                      10.1021/acs.jctc.8b01176
      * Hamiltonian:
        H0-scaling (s, p, d)           1.850000    2.230000    2.230000
        zeta-weighting                 0.500000
      * Dispersion:
        s8                             2.700000
        a1                             0.520000
        a2                             5.000000
        s9                             5.000000
      * Repulsion:
        kExp                           1.500000    1.000000
        rExp                           1.000000
      * Coulomb:
        alpha                          2.000000
        third order                    shell-resolved
        anisotropic                    true
        a3                             3.000000
        a5                             4.000000
        cn-shift                       1.200000
        cn-exp                         4.000000
        max-rad                        5.000000

      * Solvation model:               ALPB
        Solvent                        water
        Parameter file                 internal GFN2-xTB/ALPB
        Dielectric constant                8.0200E+01
        Reference state                gsolv [1 M gas/solution]
        Free energy shift                  1.0808E-03 Eh       6.7819E-01 kcal/mol
        Temperature                        2.9815E+02 K
        Density                            1.0000E+00 kg/L
        Solvent mass                       1.8000E+01 g/mol
        Interaction kernel             P16
        Born radius scaling (c1)           1.4744E+00
        Born radii integrator          GBOBC
        Born offset                        0.0000E+00 a0       0.0000E+00 AA
        H-bond correction              true
        Ion screening                  false
        Surface tension                    1.0000E-05 Eh       1.5569E+01 dyn/cm
        Grid points                               230 per atom

          ...................................................
          :                      SETUP                      :
          :.................................................:
          :  # basis functions                 378          :
          :  # atomic orbitals                 378          :
          :  # shells                          224          :
          :  # electrons                       422          :
          :  max. iterations                   250          :
          :  Hamiltonian                  GFN2-xTB          :
          :  restarted?                      false          :
          :  GBSA solvation                   true          :
          :  PC potential                    false          :
          :  electronic temp.          300.0000000     K    :
          :  accuracy                    1.0000000          :
          :  -> integral cutoff          0.2500000E+02      :
          :  -> integral neglect         0.1000000E-07      :
          :  -> SCF convergence          0.1000000E-05 Eh   :
          :  -> wf. convergence          0.1000000E-03 e    :
          :  Broyden damping             0.4000000          :
          :  net charge                          0          :
          :  unpaired electrons                  0          :
          ...................................................

 iter      E             dE          RMSdq      gap      omega  full diag
   1   -245.3538491 -0.245354E+03  0.445E+00    2.23       0.0  T
   2   -245.6080092 -0.254160E+00  0.243E+00    1.82       1.0  T
   3   -245.5850829  0.229263E-01  0.106E+00    1.93       1.0  T
   4   -245.6294830 -0.444001E-01  0.350E-01    1.72       1.0  T
   5   -245.6377716 -0.828858E-02  0.135E-01    1.71       1.0  T
   6   -245.6387005 -0.928930E-03  0.675E-02    1.71       1.0  T
   7   -245.6388404 -0.139898E-03  0.306E-02    1.72       1.0  T
   8   -245.6388751 -0.346777E-04  0.135E-02    1.72       1.0  T
   9   -245.6388815 -0.648643E-05  0.617E-03    1.72       1.3  T
  10   -245.6388827 -0.112657E-05  0.345E-03    1.72       2.4  T
  11   -245.6388831 -0.439336E-06  0.199E-03    1.72       4.1  T
  12   -245.6388833 -0.175231E-06  0.839E-04    1.72       9.8  T
  13   -245.6388833 -0.389417E-07  0.382E-04    1.72      21.6  T

   *** convergence criteria satisfied after 13 iterations ***

         #    Occupation            Energy/Eh            Energy/eV
      -------------------------------------------------------------
         1        2.0000           -0.7698295             -20.9481
       ...           ...                  ...                  ...
       205        2.0000           -0.4074146             -11.0863
       206        2.0000           -0.4067419             -11.0680
       207        2.0000           -0.4008770             -10.9084
       208        2.0000           -0.4005148             -10.8986
       209        2.0000           -0.3855264             -10.4907
       210        2.0000           -0.3806643             -10.3584
       211        2.0000           -0.3704534             -10.0806 (HOMO)
       212                         -0.3072996              -8.3620 (LUMO)
       213                         -0.2938244              -7.9954
       214                         -0.2538555              -6.9078
       215                         -0.2407342              -6.5507
       216                         -0.2339679              -6.3666
       ...                                ...                  ...
       378                          0.6870108              18.6945
      -------------------------------------------------------------
                  HL-Gap            0.0631538 Eh            1.7185 eV
             Fermi-level           -0.3388765 Eh           -9.2213 eV

 SCC (total)                   0 d,  0 h,  0 min,  0.280 sec
 SCC setup                      ...        0 min,  0.004 sec (  1.340%)
 Dispersion                     ...        0 min,  0.005 sec (  1.742%)
 classical contributions        ...        0 min,  0.000 sec (  0.066%)
 integral evaluation            ...        0 min,  0.014 sec (  5.003%)
 iterations                     ...        0 min,  0.214 sec ( 76.540%)
 molecular gradient             ...        0 min,  0.041 sec ( 14.537%)
 printout                       ...        0 min,  0.002 sec (  0.755%)

         :::::::::::::::::::::::::::::::::::::::::::::::::::::
         ::                     SUMMARY                     ::
         :::::::::::::::::::::::::::::::::::::::::::::::::::::
         :: total energy            -242.978055156448 Eh    ::
         :: total w/o Gsasa/hb      -242.954269939673 Eh    ::
         :: gradient norm              0.117759858498 Eh/a0 ::
         :: HOMO-LUMO gap              1.718502127961 eV    ::
         ::.................................................::
         :: SCC energy              -245.623914861369 Eh    ::
         :: -> isotropic ES            0.561576664060 Eh    ::
         :: -> anisotropic ES         -0.029312654654 Eh    ::
         :: -> anisotropic XC          0.023320578530 Eh    ::
         :: -> dispersion             -0.202816609223 Eh    ::
         :: -> Gsolv                  -0.079356276436 Eh    ::
         ::    -> Gelec               -0.055571059661 Eh    ::
         ::    -> Gsasa                0.009261668978 Eh    ::
         ::    -> Ghb                 -0.034127645451 Eh    ::
         ::    -> Gshift               0.001080759698 Eh    ::
         :: repulsion energy           2.645859704921 Eh    ::
         :: add. restraining           0.000000000000 Eh    ::
         :: total charge              -0.000000000000 e     ::
         :::::::::::::::::::::::::::::::::::::::::::::::::::::

           -------------------------------------------------
          |                Property Printout                |
           -------------------------------------------------

    * Orbital Energies and Occupations

         #    Occupation            Energy/Eh            Energy/eV
      -------------------------------------------------------------
         1        2.0000           -0.7698295             -20.9481
       ...           ...                  ...                  ...
       199        2.0000           -0.4211847             -11.4610
       200        2.0000           -0.4166993             -11.3390
       201        2.0000           -0.4155163             -11.3068
       202        2.0000           -0.4147936             -11.2871
       203        2.0000           -0.4127844             -11.2324
       204        2.0000           -0.4116302             -11.2010
       205        2.0000           -0.4074146             -11.0863
       206        2.0000           -0.4067419             -11.0680
       207        2.0000           -0.4008770             -10.9084
       208        2.0000           -0.4005148             -10.8986
       209        2.0000           -0.3855264             -10.4907
       210        2.0000           -0.3806643             -10.3584
       211        2.0000           -0.3704534             -10.0806 (HOMO)
       212                         -0.3072996              -8.3620 (LUMO)
       213                         -0.2938244              -7.9954
       214                         -0.2538555              -6.9078
       215                         -0.2407342              -6.5507
       216                         -0.2339679              -6.3666
       217                         -0.2264437              -6.1618
       218                         -0.2259457              -6.1483
       219                         -0.2230877              -6.0705
       220                         -0.2184303              -5.9438
       221                         -0.1980195              -5.3884
       222                         -0.1555598              -4.2330
       ...                                ...                  ...
       378                          0.6870108              18.6945
      -------------------------------------------------------------
                  HL-Gap            0.0631538 Eh            1.7185 eV
             Fermi-level           -0.3388765 Eh           -9.2213 eV

     #   Z          covCN         q      C6AA      α(0)
     1   6 C        2.843     0.139    24.973     8.190
     2   6 C        2.969    -0.050    29.234     8.869
     3   6 C        2.964    -0.003    28.088     8.693
     4   6 C        2.929    -0.074    29.843     8.959
     5   6 C        2.838     0.148    24.786     8.159
     6   6 C        2.919    -0.100    30.521     9.060
     7   6 C        3.745     0.105    18.924     6.206
     8   6 C        3.718     0.100    19.045     6.234
     9   6 C        3.751     0.100    18.994     6.215
    10   6 C        3.745     0.097    19.043     6.225
    11   6 C        3.741     0.097    19.051     6.227
    12   8 O        1.695    -0.346    19.810     6.009
    13   6 C        3.682     0.078    19.484     6.321
    14   8 O        1.652    -0.501    22.917     6.462
    15   8 O        1.651    -0.496    22.817     6.448
    16   8 O        1.698    -0.346    19.812     6.009
    17   8 O        1.702    -0.297    18.936     5.875
    18   6 C        3.675     0.076    19.536     6.333
    19   8 O        1.654    -0.495    22.777     6.443
    20   6 C        3.641     0.242    17.170     5.959
    21   8 O        1.697    -0.365    20.171     6.064
    22   6 C        3.732     0.092    19.138     6.244
    23   6 C        3.720     0.079    19.368     6.286
    24   6 C        3.724     0.092    19.164     6.251
    25   6 C        3.753     0.089    19.162     6.242
    26   8 O        1.653    -0.458    22.001     6.332
    27   8 O        1.700    -0.338    19.678     5.989
    28   8 O        1.653    -0.482    22.500     6.403
    29   6 C        3.714     0.067    19.582     6.323
    30   8 O        1.703    -0.268    18.448     5.799
    31   6 C        2.735     0.353    21.003     7.503
    32   8 O        0.857    -0.444    22.570     6.370
    33   6 C        2.728     0.359    20.915     7.487
    34   6 C        2.896    -0.085    30.129     9.000
    35   8 O        0.857    -0.488    23.520     6.502
    36   6 C        2.903     0.000    28.018     8.679
    37   6 C        2.898    -0.047    29.170     8.855
    38   6 C        2.897    -0.007    28.204     8.707
    39   6 C        3.806    -0.076    21.942     6.668
    40   6 C        3.728     0.116    18.780     6.187
    41   6 C        2.894    -0.061    29.509     8.906
    42   8 O        1.651    -0.499    22.875     6.456
    43   6 C        2.899    -0.044    29.100     8.845
    44   6 C        2.898    -0.052    29.278     8.872
    45   6 C        2.895    -0.046    29.145     8.852
    46   6 C        3.805    -0.064    21.725     6.635
    47   6 C        3.800    -0.059    21.635     6.623
    48   6 C        3.800    -0.057    21.606     6.618
    49   6 C        3.799    -0.053    21.523     6.606
    50   6 C        3.751    -0.106    22.588     6.778
    51   8 O        1.656    -0.429    21.419     6.248
    52   8 O        1.657    -0.451    21.866     6.312
    53   6 C        3.642     0.236    17.246     5.971
    54   6 C        3.721     0.092    19.170     6.253
    55   6 C        3.723     0.099    19.048     6.232
    56   6 C        3.722     0.094    19.124     6.245
    57   6 C        3.738     0.098    19.043     6.227
    58   8 O        1.695    -0.361    20.088     6.051
    59   6 C        3.674     0.073    19.581     6.341
    60   8 O        1.653    -0.490    22.683     6.429
    61   8 O        1.654    -0.491    22.702     6.432
    62   8 O        1.652    -0.480    22.459     6.397
    63   8 O        1.654    -0.496    22.798     6.446
    64   6 C        2.971    -0.022    28.557     8.766
    65   6 C        2.930    -0.021    28.538     8.761
    66   6 C        2.920    -0.031    28.776     8.797
    67   6 C        2.928    -0.027    28.676     8.782
    68   6 C        2.975     0.020    27.553     8.610
    69   6 C        2.936    -0.038    28.936     8.822
    70   6 C        2.977    -0.002    28.073     8.691
    71   6 C        2.923    -0.035    28.877     8.812
    72   6 C        2.921    -0.057    29.428     8.896
    73   6 C        2.866     0.137    25.014     8.198
    74   6 C        2.919    -0.063    29.578     8.918
    75   6 C        2.924    -0.035    28.881     8.813
    76   8 O        1.702    -0.310    19.176     5.912
    77   6 C        3.649     0.026    20.456     6.497
    78   1 H        0.926     0.067     2.120     2.277
    79   1 H        0.926     0.076     2.021     2.223
    80   1 H        0.924     0.046     2.375     2.410
    81   1 H        0.923     0.057     2.238     2.339
    82   1 H        0.924     0.063     2.168     2.303
    83   1 H        0.923     0.067     2.116     2.275
    84   1 H        0.923     0.051     2.304     2.374
    85   1 H        0.924     0.025     2.663     2.552
    86   1 H        0.924     0.057     2.234     2.337
    87   1 H        0.802     0.333     0.630     1.247
    88   1 H        0.803     0.347     0.595     1.212
    89   1 H        0.924     0.062     2.181     2.309
    90   1 H        0.924     0.055     2.253     2.347
    91   1 H        0.804     0.366     0.552     1.167
    92   1 H        0.923     0.039     2.460     2.453
    93   1 H        0.923     0.058     2.220     2.330
    94   1 H        0.923     0.071     2.071     2.251
    95   1 H        0.923     0.065     2.144     2.290
    96   1 H        0.923     0.070     2.090     2.261
    97   1 H        0.803     0.333     0.630     1.247
    98   1 H        0.803     0.347     0.596     1.213
    99   1 H        0.924     0.089     1.890     2.150
   100   1 H        0.924     0.108     1.715     2.048
   101   1 H        0.926     0.093     1.850     2.127
   102   1 H        0.926     0.069     2.095     2.264
   103   1 H        0.926     0.069     2.098     2.265
   104   1 H        0.926     0.076     2.017     2.221
   105   1 H        0.924     0.068     2.105     2.269
   106   1 H        0.924     0.073     2.049     2.239
   107   1 H        0.923     0.049     2.338     2.391
   108   1 H        0.926     0.038     2.478     2.462
   109   1 H        0.803     0.323     0.657     1.273
   110   1 H        0.926     0.057     2.240     2.341
   111   1 H        0.926     0.032     2.563     2.504
   112   1 H        0.926     0.051     2.308     2.376
   113   1 H        0.924     0.049     2.333     2.389
   114   1 H        0.924     0.052     2.300     2.372
   115   1 H        0.924     0.030     2.585     2.514
   116   1 H        0.924     0.029     2.594     2.519
   117   1 H        0.924     0.032     2.561     2.503
   118   1 H        0.924     0.024     2.676     2.558
   119   1 H        0.924     0.029     2.598     2.521
   120   1 H        0.924     0.022     2.706     2.572
   121   1 H        0.924     0.032     2.563     2.504
   122   1 H        0.924     0.036     2.508     2.476
   123   1 H        0.924     0.036     2.499     2.472
   124   1 H        0.803     0.347     0.596     1.213
   125   1 H        0.804     0.381     0.520     1.133
   126   1 H        0.923     0.018     2.762     2.599
   127   1 H        0.923     0.059     2.216     2.328
   128   1 H        0.923     0.036     2.510     2.477
   129   1 H        0.923     0.055     2.254     2.348
   130   1 H        0.923     0.034     2.534     2.490
   131   1 H        0.924     0.062     2.181     2.310
   132   1 H        0.924     0.058     2.220     2.330
   133   1 H        0.803     0.377     0.529     1.143
   134   1 H        0.804     0.375     0.533     1.147
   135   1 H        0.803     0.331     0.635     1.252
   136   1 H        0.803     0.360     0.565     1.181
   137   1 H        0.926     0.046     2.376     2.410
   138   1 H        0.926     0.071     2.072     2.251
   139   1 H        0.926     0.061     2.188     2.313
   140   1 H        0.926     0.071     2.076     2.253
   141   1 H        0.926     0.047     2.352     2.398
   142   1 H        0.926     0.053     2.279     2.361
   143   1 H        0.926     0.054     2.273     2.358
   144   1 H        0.926     0.053     2.280     2.361
   145   1 H        0.924     0.073     2.048     2.238
   146   1 H        0.924     0.051     2.304     2.374
   147   1 H        0.924     0.053     2.282     2.362

 Mol. C6AA /au·bohr⁶  :     216085.841590
 Mol. C8AA /au·bohr⁸  :    4959274.696823
 Mol. α(0) /au        :        702.213711


Wiberg/Mayer (AO) data.
largest (>0.10) Wiberg bond orders for each atom

 ---------------------------------------------------------------------------
     #   Z sym  total        # sym  WBO       # sym  WBO       # sym  WBO
 ---------------------------------------------------------------------------
     1   6 C    3.946 --     6 C    1.392     2 C    1.333    51 O    1.074
     2   6 C    3.969 --     3 C    1.388     1 C    1.333     7 C    0.990
     3   6 C    3.987 --     4 C    1.430     2 C    1.388    13 C    1.000
     4   6 C    3.983 --     3 C    1.430     5 C    1.359    78 H    0.964
     5   6 C    3.944 --     6 C    1.378     4 C    1.359    52 O    1.080
     6   6 C    3.977 --     1 C    1.392     5 C    1.378    79 H    0.961
     7   6 C    3.935 --     2 C    0.990     8 C    0.954    80 H    0.949
                            12 O    0.945
     8   6 C    3.951 --    15 O    0.988     9 C    0.964    81 H    0.954
                             7 C    0.954
     9   6 C    3.926 --    10 C    0.966     8 C    0.964    82 H    0.952
                            17 O    0.939
    10   6 C    3.931 --     9 C    0.966    11 C    0.962    83 H    0.951
                            16 O    0.949
    11   6 C    3.944 --    18 C    0.981    12 O    0.964    10 C    0.962
                            84 H    0.955
    12   8 O    2.081 --    11 C    0.964     7 C    0.945
    13   6 C    3.956 --     3 C    1.000    14 O    0.989    86 H    0.968
                            85 H    0.956
    14   8 O    1.920 --    13 C    0.989    87 H    0.845
    15   8 O    1.940 --     8 C    0.988    88 H    0.828
    16   8 O    2.082 --    20 C    0.983    10 C    0.949
    17   8 O    2.267 --    33 C    1.076     9 C    0.939    35 O    0.139
    18   6 C    3.956 --    19 O    1.010    11 C    0.981    89 H    0.967
                            90 H    0.960
    19   8 O    1.919 --    18 C    1.010    91 H    0.850
    20   6 C    3.923 --    16 O    0.983    21 O    0.960    25 C    0.953
                            92 H    0.948
    21   8 O    2.054 --    20 C    0.960    22 C    0.944
    22   6 C    3.928 --    29 C    0.981    23 C    0.967    93 H    0.956
                            21 O    0.944
    23   6 C    3.960 --    28 O    0.995    22 C    0.967    24 C    0.959
                            94 H    0.956
    24   6 C    3.961 --    26 O    1.012    23 C    0.959    25 C    0.959
                            95 H    0.955
    25   6 C    3.935 --    27 O    0.963    24 C    0.959    20 C    0.953
                            96 H    0.939
    26   8 O    1.959 --    24 C    1.012    97 H    0.858
    27   8 O    2.088 --    53 C    0.980    25 C    0.963
    28   8 O    1.950 --    23 C    0.995    98 H    0.814
    29   6 C    3.920 --    22 C    0.981    99 H    0.960   100 H    0.959
                            30 O    0.952
    30   8 O    2.294 --    31 C    1.051    29 C    0.952    32 O    0.138
    31   6 C    3.900 --    32 O    1.719    30 O    1.051    64 C    1.021
    32   8 O    2.025 --    31 C    1.719    30 O    0.138
    33   6 C    3.894 --    35 O    1.624    34 C    1.086    17 O    1.076
    34   6 C    3.965 --    36 C    1.703    33 C    1.086   101 H    0.957
                            38 C    0.112
    35   8 O    1.963 --    33 C    1.624    17 O    0.139
    36   6 C    3.976 --    34 C    1.703    37 C    1.167   102 H    0.953
    37   6 C    3.986 --    38 C    1.761    36 C    1.167   103 H    0.958
    38   6 C    3.956 --    37 C    1.761    39 C    1.049   104 H    0.951
                            34 C    0.112
    39   6 C    3.985 --    38 C    1.049   105 H    0.965    40 C    0.951
                           106 H    0.937
    40   6 C    3.948 --    41 C    1.006    42 O    0.985   107 H    0.956
                            39 C    0.951
    41   6 C    3.988 --    43 C    1.830    40 C    1.006   108 H    0.965
                            45 C    0.128
    42   8 O    1.930 --    40 C    0.985   109 H    0.856
    43   6 C    3.989 --    41 C    1.830    44 C    1.123   110 H    0.949
    44   6 C    3.990 --    45 C    1.825    43 C    1.123   111 H    0.963
    45   6 C    3.979 --    44 C    1.825    46 C    1.031   112 H    0.950
                            41 C    0.128
    46   6 C    3.996 --    45 C    1.031    47 C    1.006   113 H    0.959
                           114 H    0.955
    47   6 C    3.996 --    48 C    1.009    46 C    1.006   115 H    0.977
                           116 H    0.977
    48   6 C    3.996 --    47 C    1.009    49 C    1.007   117 H    0.976
                           118 H    0.966
    49   6 C    3.997 --    50 C    1.021    48 C    1.007   119 H    0.978
                           120 H    0.977
    50   6 C    3.996 --    49 C    1.021   123 H    0.987   122 H    0.987
                           121 H    0.983
    51   8 O    2.094 --     1 C    1.074   124 H    0.827
    52   8 O    2.076 --     5 C    1.080   125 H    0.836
    53   6 C    3.920 --    27 O    0.980    54 C    0.956    58 O    0.954
                           126 H    0.944
    54   6 C    3.954 --    62 O    0.994    55 C    0.969   127 H    0.956
                            53 C    0.956
    55   6 C    3.963 --    61 O    1.002    56 C    0.969    54 C    0.969
                           128 H    0.960
    56   6 C    3.963 --    60 O    1.001    55 C    0.969    57 C    0.968
                           129 H    0.957
    57   6 C    3.937 --    59 C    0.983    56 C    0.968   130 H    0.957
                            58 O    0.953
    58   8 O    2.055 --    53 C    0.954    57 C    0.953
    59   6 C    3.961 --    63 O    1.014    57 C    0.983   131 H    0.968
                           132 H    0.962
    60   8 O    1.936 --    56 C    1.001   133 H    0.830
    61   8 O    1.925 --    55 C    1.002   134 H    0.842
    62   8 O    1.931 --    54 C    0.994   135 H    0.857
    63   8 O    1.915 --    59 C    1.014   136 H    0.830
    64   6 C    3.983 --    69 C    1.385    65 C    1.371    31 C    1.021
    65   6 C    3.983 --    66 C    1.443    64 C    1.371   137 H    0.961
    66   6 C    3.986 --    67 C    1.446    65 C    1.443   138 H    0.955
    67   6 C    3.985 --    66 C    1.446    68 C    1.374   139 H    0.966
    68   6 C    3.987 --    69 C    1.400    67 C    1.374    70 C    1.049
    69   6 C    3.984 --    68 C    1.400    64 C    1.385   140 H    0.954
    70   6 C    3.988 --    75 C    1.383    71 C    1.372    68 C    1.049
    71   6 C    3.990 --    72 C    1.478    70 C    1.372   141 H    0.967
    72   6 C    3.988 --    71 C    1.478    73 C    1.356   142 H    0.967
                            75 C    0.102
    73   6 C    3.925 --    74 C    1.366    72 C    1.356    76 O    1.040
    74   6 C    3.987 --    75 C    1.462    73 C    1.366   143 H    0.962
    75   6 C    3.990 --    74 C    1.462    70 C    1.383   144 H    0.964
                            72 C    0.102
    76   8 O    2.188 --    73 C    1.040    77 C    0.978
    77   6 C    3.935 --    76 O    0.978   145 H    0.977   147 H    0.976
                           146 H    0.976
    78   1 H    0.995 --     4 C    0.964
    79   1 H    0.994 --     6 C    0.961
    80   1 H    0.997 --     7 C    0.949
    81   1 H    0.997 --     8 C    0.954
    82   1 H    0.996 --     9 C    0.952
    83   1 H    0.995 --    10 C    0.951
    84   1 H    0.997 --    11 C    0.955
    85   1 H    0.999 --    13 C    0.956
    86   1 H    0.996 --    13 C    0.968
    87   1 H    0.889 --    14 O    0.845
    88   1 H    0.879 --    15 O    0.828
    89   1 H    0.996 --    18 C    0.967
    90   1 H    0.997 --    18 C    0.960
    91   1 H    0.866 --    19 O    0.850
    92   1 H    0.998 --    20 C    0.948
    93   1 H    0.996 --    22 C    0.956
    94   1 H    0.995 --    23 C    0.956
    95   1 H    0.996 --    24 C    0.955
    96   1 H    0.995 --    25 C    0.939
    97   1 H    0.889 --    26 O    0.858
    98   1 H    0.880 --    28 O    0.814
    99   1 H    0.992 --    29 C    0.960
   100   1 H    0.987 --    29 C    0.959
   101   1 H    0.991 --    34 C    0.957
   102   1 H    0.995 --    36 C    0.953
   103   1 H    0.995 --    37 C    0.958
   104   1 H    0.994 --    38 C    0.951
   105   1 H    0.994 --    39 C    0.965
   106   1 H    0.984 --    39 C    0.937
   107   1 H    0.994 --    40 C    0.956
   108   1 H    0.998 --    41 C    0.965
   109   1 H    0.896 --    42 O    0.856
   110   1 H    0.997 --    43 C    0.949
   111   1 H    0.998 --    44 C    0.963
   112   1 H    0.997 --    45 C    0.950
   113   1 H    0.997 --    46 C    0.959
   114   1 H    0.996 --    46 C    0.955
   115   1 H    0.998 --    47 C    0.977
   116   1 H    0.999 --    47 C    0.977
   117   1 H    0.999 --    48 C    0.976
   118   1 H    0.999 --    48 C    0.966
   119   1 H    0.999 --    49 C    0.978
   120   1 H    1.000 --    49 C    0.977
   121   1 H    0.999 --    50 C    0.983
   122   1 H    0.998 --    50 C    0.987
   123   1 H    0.999 --    50 C    0.987
   124   1 H    0.879 --    51 O    0.827
   125   1 H    0.854 --    52 O    0.836
   126   1 H    1.000 --    53 C    0.944
   127   1 H    0.996 --    54 C    0.956
   128   1 H    0.999 --    55 C    0.960
   129   1 H    0.996 --    56 C    0.957
   130   1 H    0.999 --    57 C    0.957
   131   1 H    0.996 --    59 C    0.968
   132   1 H    0.996 --    59 C    0.962
   133   1 H    0.858 --    60 O    0.830
   134   1 H    0.859 --    61 O    0.842
   135   1 H    0.890 --    62 O    0.857
   136   1 H    0.870 --    63 O    0.830
   137   1 H    0.997 --    65 C    0.961
   138   1 H    0.994 --    66 C    0.955
   139   1 H    0.996 --    67 C    0.966
   140   1 H    0.995 --    69 C    0.954
   141   1 H    0.997 --    71 C    0.967
   142   1 H    0.997 --    72 C    0.967
   143   1 H    0.997 --    74 C    0.962
   144   1 H    0.997 --    75 C    0.964
   145   1 H    0.994 --    77 C    0.977
   146   1 H    0.997 --    77 C    0.976
   147   1 H    0.997 --    77 C    0.976
 ---------------------------------------------------------------------------

Topologies differ in total number of bonds
Writing topology from bond orders to xtbtopo.mol

molecular dipole:
                 x           y           z       tot (Debye)
 q only:       -4.400       1.531      -0.135
   full:       -4.383       1.747      -0.448      12.047
molecular quadrupole (traceless):
                xx          xy          yy          xz          yz          zz
 q only:       25.602     -22.725     -11.021     -21.126       2.972     -14.581
  q+dip:       35.652     -35.580     -29.147     -24.410       0.103      -6.505
   full:       32.104     -36.355     -25.368     -23.849       1.038      -6.736


           -------------------------------------------------
          | TOTAL ENERGY             -242.978055156448 Eh   |
          | GRADIENT NORM               0.117759858498 Eh/α |
          | HOMO-LUMO GAP               1.718502127961 eV   |
           -------------------------------------------------

------------------------------------------------------------------------
 * finished run on 2026/06/19 at 18:53:04.249     
------------------------------------------------------------------------
 total:
 * wall-time:     0 d,  0 h,  0 min,  0.339 sec
 *  cpu-time:     0 d,  0 h,  0 min,  5.137 sec
 * ratio c/w:    15.135 speedup
 SCF:
 * wall-time:     0 d,  0 h,  0 min,  0.281 sec
 *  cpu-time:     0 d,  0 h,  0 min,  4.402 sec
 * ratio c/w:    15.682 speedup

normal termination of xtb
