      -----------------------------------------------------------      
     |                   =====================                   |     
     |                           x T B                           |     
     |                   =====================                   |     
     |                         S. Grimme                         |     
     |          Mulliken Center for Theoretical Chemistry        |     
     |                    University of Bonn                     |     
      -----------------------------------------------------------      

   * xtb version 6.7.1 (edcfbbe) compiled by 'albert@albert-system' on 2024-07-22

   xtb is free software: you can redistribute it and/or modify it under
   the terms of the GNU Lesser General Public License as published by
   the Free Software Foundation, either version 3 of the License, or
   (at your option) any later version.
   
   xtb is distributed in the hope that it will be useful,
   but WITHOUT ANY WARRANTY; without even the implied warranty of
   MERCHANTABILITY or FITNESS FOR A PARTICULAR PURPOSE.  See the
   GNU Lesser General Public License for more details.
   
   Cite this work as:
   * C. Bannwarth, E. Caldeweyher, S. Ehlert, A. Hansen, P. Pracht,
     J. Seibert, S. Spicher, S. Grimme, WIREs Comput. Mol. Sci., 2020, 11,
     e01493. DOI: 10.1002/wcms.1493
   
   for GFN2-xTB:
   * C. Bannwarth, S. Ehlert and S. Grimme., J. Chem. Theory Comput., 2019,
     15, 1652-1671. DOI: 10.1021/acs.jctc.8b01176
   for GFN1-xTB:
   * S. Grimme, C. Bannwarth, P. Shushkov, J. Chem. Theory Comput., 2017,
     13, 1989-2009. DOI: 10.1021/acs.jctc.7b00118
   for GFN0-xTB:
   * P. Pracht, E. Caldeweyher, S. Ehlert, S. Grimme, ChemRxiv, 2019, preprint.
     DOI: 10.26434/chemrxiv.8326202.v1
   for GFN-FF:
   * S. Spicher and S. Grimme, Angew. Chem. Int. Ed., 2020, 59, 15665-15673.
     DOI: 10.1002/anie.202004239
   
   for ALPB and GBSA implicit solvation:
   * S. Ehlert, M. Stahn, S. Spicher, S. Grimme, J. Chem. Theory Comput.,
     2021, 17, 4250-4261. DOI: 10.1021/acs.jctc.1c00471
   
   for ddCOSMO and CPCM-X implicit solvation:
   * M. Stahn, S. Ehlert, S. Grimme, J. Phys. Chem. A,
     2023, XX, XXXX-XXXX. DOI: 10.1021/acs.jpca.3c04382
   
   for DFT-D4:
   * E. Caldeweyher, C. Bannwarth and S. Grimme, J. Chem. Phys., 2017,
     147, 034112. DOI: 10.1063/1.4993215
   * E. Caldeweyher, S. Ehlert, A. Hansen, H. Neugebauer, S. Spicher,
     C. Bannwarth and S. Grimme, J. Chem. Phys., 2019, 150, 154122.
     DOI: 10.1063/1.5090222
   * E. Caldeweyher, J.-M. Mewes, S. Ehlert and S. Grimme, Phys. Chem. Chem. Phys.
     2020, 22, 8499-8512. DOI: 10.1039/D0CP00502A
   
   for sTDA-xTB:
   * S. Grimme and C. Bannwarth, J. Chem. Phys., 2016, 145, 054103.
     DOI: 10.1063/1.4959605
   
   in the mass-spec context:
   * V. Asgeirsson, C. Bauer and S. Grimme, Chem. Sci., 2017, 8, 4879.
     DOI: 10.1039/c7sc00601b
   * J. Koopman and S. Grimme, ACS Omega 2019, 4, 12, 15120-15133.
     DOI: 10.1021/acsomega.9b02011
   
   for metadynamics refer to:
   * S. Grimme, J. Chem. Theory Comput., 2019, 155, 2847-2862
     DOI: 10.1021/acs.jctc.9b00143
   
   for SPH calculations refer to:
   * S. Spicher and S. Grimme, J. Chem. Theory Comput., 2021, 17, 1701-1714
     DOI: 10.1021/acs.jctc.0c01306
   
   for ONIOM refer to:
   * C. Plett, A. Katbashev, S. Ehlert, S. Grimme, M. Bursch,
     Phys. Chem. Chem. Phys., 2023, 25, 17860-17868. DOI: 10.1039/D3CP02178E
   
   for DIPRO refer to:
   * J. Kohn, N. Gildemeister, S. Grimme, D. Fazzi, A. Hansen,
     J. Chem. Phys., 2023, just accepted.
   
   for PTB refer to:
   * S. Grimme, M. Mueller, A. Hansen, J. Chem. Phys., 2023, 158, 124111.
     DOI: 10.1063/5.0137838
   
   with help from (in alphabetical order)
   P. Atkinson, C. Bannwarth, F. Bohle, G. Brandenburg, E. Caldeweyher
   M. Checinski, S. Dohm, S. Ehlert, S. Ehrlich, I. Gerasimov, C. Hölzer
   A. Katbashev, J. Kohn, J. Koopman, C. Lavigne, S. Lehtola, F. März, M. Müller,
   F. Musil, H. Neugebauer, J. Pisarek, C. Plett, P. Pracht, F. Pultar,
   J. Seibert, P. Shushkov, S. Spicher, M. Stahn, M. Steiner, T. Strunk,
   J. Stückrath, T. Rose, and J. Unsleber
   
 * started run on 2026/06/19 at 18:53:04.968     
   ID    Z sym.   atoms
    1    6 C      1-11, 13, 18, 20, 22-25, 29, 31, 33, 34, 36-41, 43-50,
                  53-57, 59, 64-75, 77
    2    8 O      12, 14-17, 19, 21, 26-28, 30, 32, 35, 42, 51, 52, 58,
                  60-63, 76
    3    1 H      78-147

           -------------------------------------------------
          |                Calculation Setup                |
           -------------------------------------------------

          program call               : xtb PAPU-0089/conf04.xyz --gfn 2 --alpb octanol --chrg 0 --uhf 0 --namespace PAPU-0089/conf04_octanol
          hostname                   : cpu10
          calculation namespace      : PAPU-0089/conf04_octanol
          coordinate file            : PAPU-0089/conf04.xyz
          omp threads                :                    16


           -------------------------------------------------
          |                 G F N 2 - x T B                 |
           -------------------------------------------------

        Reference                      10.1021/acs.jctc.8b01176
      * Hamiltonian:
        H0-scaling (s, p, d)           1.850000    2.230000    2.230000
        zeta-weighting                 0.500000
      * Dispersion:
        s8                             2.700000
        a1                             0.520000
        a2                             5.000000
        s9                             5.000000
      * Repulsion:
        kExp                           1.500000    1.000000
        rExp                           1.000000
      * Coulomb:
        alpha                          2.000000
        third order                    shell-resolved
        anisotropic                    true
        a3                             3.000000
        a5                             4.000000
        cn-shift                       1.200000
        cn-exp                         4.000000
        max-rad                        5.000000

      * Solvation model:               ALPB
        Solvent                        octanol
        Parameter file                 internal GFN2-xTB/ALPB
        Dielectric constant                9.8629E+00
        Reference state                gsolv [1 M gas/solution]
        Free energy shift                  2.3397E-03 Eh       1.4682E+00 kcal/mol
        Temperature                        2.9815E+02 K
        Density                            8.3000E-01 kg/L
        Solvent mass                       1.3023E+02 g/mol
        Interaction kernel             P16
        Born radius scaling (c1)           1.5898E+00
        Born radii integrator          GBOBC
        Born offset                        0.0000E+00 a0       0.0000E+00 AA
        H-bond correction              true
        Ion screening                  false
        Surface tension                    1.0000E-05 Eh       1.5569E+01 dyn/cm
        Grid points                               230 per atom

          ...................................................
          :                      SETUP                      :
          :.................................................:
          :  # basis functions                 378          :
          :  # atomic orbitals                 378          :
          :  # shells                          224          :
          :  # electrons                       422          :
          :  max. iterations                   250          :
          :  Hamiltonian                  GFN2-xTB          :
          :  restarted?                      false          :
          :  GBSA solvation                   true          :
          :  PC potential                    false          :
          :  electronic temp.          300.0000000     K    :
          :  accuracy                    1.0000000          :
          :  -> integral cutoff          0.2500000E+02      :
          :  -> integral neglect         0.1000000E-07      :
          :  -> SCF convergence          0.1000000E-05 Eh   :
          :  -> wf. convergence          0.1000000E-03 e    :
          :  Broyden damping             0.4000000          :
          :  net charge                          0          :
          :  unpaired electrons                  0          :
          ...................................................

 iter      E             dE          RMSdq      gap      omega  full diag
   1   -245.3642339 -0.245364E+03  0.441E+00    2.21       0.0  T
   2   -245.6230712 -0.258837E+00  0.243E+00    1.65       1.0  T
   3   -245.5966242  0.264470E-01  0.112E+00    1.71       1.0  T
   4   -245.6469647 -0.503406E-01  0.352E-01    1.52       1.0  T
   5   -245.6566459 -0.968118E-02  0.142E-01    1.49       1.0  T
   6   -245.6579707 -0.132475E-02  0.632E-02    1.51       1.0  T
   7   -245.6580904 -0.119707E-03  0.278E-02    1.52       1.0  T
   8   -245.6581170 -0.266597E-04  0.119E-02    1.52       1.0  T
   9   -245.6581218 -0.480068E-05  0.608E-03    1.52       1.4  T
  10   -245.6581241 -0.225025E-05  0.289E-03    1.52       2.9  T
  11   -245.6581244 -0.343958E-06  0.149E-03    1.52       5.5  T
  12   -245.6581245 -0.582263E-07  0.682E-04    1.52      12.1  T
  13   -245.6581245 -0.208024E-07  0.289E-04    1.52      28.6  T

   *** convergence criteria satisfied after 13 iterations ***

         #    Occupation            Energy/Eh            Energy/eV
      -------------------------------------------------------------
         1        2.0000           -0.7839650             -21.3328
       ...           ...                  ...                  ...
       205        2.0000           -0.4156131             -11.3094
       206        2.0000           -0.4118315             -11.2065
       207        2.0000           -0.4089630             -11.1285
       208        2.0000           -0.4084840             -11.1154
       209        2.0000           -0.3938958             -10.7185
       210        2.0000           -0.3875288             -10.5452
       211        2.0000           -0.3760739             -10.2335 (HOMO)
       212                         -0.3203090              -8.7161 (LUMO)
       213                         -0.3032361              -8.2515
       214                         -0.2633179              -7.1652
       215                         -0.2467664              -6.7149
       216                         -0.2420071              -6.5853
       ...                                ...                  ...
       378                          0.6807328              18.5237
      -------------------------------------------------------------
                  HL-Gap            0.0557649 Eh            1.5174 eV
             Fermi-level           -0.3481914 Eh           -9.4748 eV

 SCC (total)                   0 d,  0 h,  0 min,  0.272 sec
 SCC setup                      ...        0 min,  0.003 sec (  1.245%)
 Dispersion                     ...        0 min,  0.004 sec (  1.629%)
 classical contributions        ...        0 min,  0.000 sec (  0.057%)
 integral evaluation            ...        0 min,  0.012 sec (  4.363%)
 iterations                     ...        0 min,  0.209 sec ( 76.811%)
 molecular gradient             ...        0 min,  0.041 sec ( 14.981%)
 printout                       ...        0 min,  0.002 sec (  0.900%)

         :::::::::::::::::::::::::::::::::::::::::::::::::::::
         ::                     SUMMARY                     ::
         :::::::::::::::::::::::::::::::::::::::::::::::::::::
         :: total energy            -242.996845632038 Eh    ::
         :: total w/o Gsasa/hb      -242.931160430002 Eh    ::
         :: gradient norm              0.119985509347 Eh/a0 ::
         :: HOMO-LUMO gap              1.517441225600 eV    ::
         ::.................................................::
         :: SCC energy              -245.642962802507 Eh    ::
         :: -> isotropic ES            0.536852998205 Eh    ::
         :: -> anisotropic ES         -0.027247310326 Eh    ::
         :: -> anisotropic XC          0.022723758970 Eh    ::
         :: -> dispersion             -0.203628138889 Eh    ::
         :: -> Gsolv                  -0.095048259620 Eh    ::
         ::    -> Gelec               -0.029363057584 Eh    ::
         ::    -> Gsasa               -0.030316231272 Eh    ::
         ::    -> Ghb                 -0.037708640139 Eh    ::
         ::    -> Gshift               0.002339669376 Eh    ::
         :: repulsion energy           2.646117170469 Eh    ::
         :: add. restraining           0.000000000000 Eh    ::
         :: total charge               0.000000000000 e     ::
         :::::::::::::::::::::::::::::::::::::::::::::::::::::

           -------------------------------------------------
          |                Property Printout                |
           -------------------------------------------------

    * Orbital Energies and Occupations

         #    Occupation            Energy/Eh            Energy/eV
      -------------------------------------------------------------
         1        2.0000           -0.7839650             -21.3328
       ...           ...                  ...                  ...
       199        2.0000           -0.4253825             -11.5752
       200        2.0000           -0.4238381             -11.5332
       201        2.0000           -0.4207653             -11.4496
       202        2.0000           -0.4206000             -11.4451
       203        2.0000           -0.4191897             -11.4067
       204        2.0000           -0.4186125             -11.3910
       205        2.0000           -0.4156131             -11.3094
       206        2.0000           -0.4118315             -11.2065
       207        2.0000           -0.4089630             -11.1285
       208        2.0000           -0.4084840             -11.1154
       209        2.0000           -0.3938958             -10.7185
       210        2.0000           -0.3875288             -10.5452
       211        2.0000           -0.3760739             -10.2335 (HOMO)
       212                         -0.3203090              -8.7161 (LUMO)
       213                         -0.3032361              -8.2515
       214                         -0.2633179              -7.1652
       215                         -0.2467664              -6.7149
       216                         -0.2420071              -6.5853
       217                         -0.2361369              -6.4256
       218                         -0.2344747              -6.3804
       219                         -0.2323697              -6.3231
       220                         -0.2276841              -6.1956
       221                         -0.2065353              -5.6201
       222                         -0.1697493              -4.6191
       ...                                ...                  ...
       378                          0.6807328              18.5237
      -------------------------------------------------------------
                  HL-Gap            0.0557649 Eh            1.5174 eV
             Fermi-level           -0.3481914 Eh           -9.4748 eV

     #   Z          covCN         q      C6AA      α(0)
     1   6 C        2.843     0.141    24.928     8.182
     2   6 C        2.969    -0.056    29.388     8.892
     3   6 C        2.964    -0.002    28.072     8.691
     4   6 C        2.929    -0.075    29.884     8.965
     5   6 C        2.838     0.153    24.681     8.141
     6   6 C        2.919    -0.105    30.639     9.077
     7   6 C        3.745     0.100    18.993     6.217
     8   6 C        3.718     0.094    19.133     6.248
     9   6 C        3.751     0.094    19.079     6.229
    10   6 C        3.745     0.094    19.097     6.234
    11   6 C        3.741     0.091    19.142     6.242
    12   8 O        1.695    -0.349    19.869     6.018
    13   6 C        3.682     0.074    19.536     6.330
    14   8 O        1.652    -0.489    22.666     6.427
    15   8 O        1.651    -0.494    22.756     6.439
    16   8 O        1.698    -0.336    19.639     5.983
    17   8 O        1.702    -0.305    19.077     5.897
    18   6 C        3.675     0.069    19.646     6.351
    19   8 O        1.654    -0.474    22.347     6.381
    20   6 C        3.640     0.238    17.217     5.967
    21   8 O        1.697    -0.361    20.098     6.053
    22   6 C        3.732     0.085    19.256     6.263
    23   6 C        3.721     0.069    19.534     6.312
    24   6 C        3.724     0.081    19.334     6.279
    25   6 C        3.753     0.091    19.131     6.237
    26   8 O        1.653    -0.444    21.724     6.292
    27   8 O        1.700    -0.330    19.533     5.967
    28   8 O        1.652    -0.461    22.068     6.342
    29   6 C        3.718     0.062    19.657     6.333
    30   8 O        1.703    -0.268    18.444     5.798
    31   6 C        2.738     0.349    21.067     7.515
    32   8 O        0.857    -0.425    22.195     6.316
    33   6 C        2.728     0.360    20.893     7.483
    34   6 C        2.896    -0.093    30.338     9.031
    35   8 O        0.857    -0.472    23.167     6.453
    36   6 C        2.903    -0.005    28.143     8.698
    37   6 C        2.898    -0.055    29.371     8.886
    38   6 C        2.897    -0.009    28.253     8.715
    39   6 C        3.806    -0.084    22.092     6.691
    40   6 C        3.728     0.113    18.824     6.194
    41   6 C        2.895    -0.066    29.633     8.925
    42   8 O        1.651    -0.489    22.650     6.425
    43   6 C        2.898    -0.044    29.100     8.845
    44   6 C        2.899    -0.053    29.323     8.879
    45   6 C        2.895    -0.045    29.126     8.849
    46   6 C        3.805    -0.065    21.746     6.639
    47   6 C        3.800    -0.059    21.629     6.622
    48   6 C        3.800    -0.058    21.620     6.620
    49   6 C        3.798    -0.055    21.568     6.613
    50   6 C        3.750    -0.108    22.636     6.785
    51   8 O        1.656    -0.428    21.391     6.244
    52   8 O        1.657    -0.431    21.463     6.254
    53   6 C        3.642     0.234    17.264     5.974
    54   6 C        3.721     0.088    19.231     6.263
    55   6 C        3.723     0.095    19.117     6.244
    56   6 C        3.721     0.090    19.196     6.257
    57   6 C        3.738     0.093    19.112     6.238
    58   8 O        1.695    -0.351    19.906     6.024
    59   6 C        3.674     0.069    19.642     6.351
    60   8 O        1.653    -0.480    22.474     6.400
    61   8 O        1.654    -0.479    22.443     6.395
    62   8 O        1.652    -0.479    22.452     6.396
    63   8 O        1.654    -0.482    22.507     6.404
    64   6 C        2.971    -0.030    28.737     8.793
    65   6 C        2.930    -0.025    28.627     8.775
    66   6 C        2.920    -0.035    28.863     8.810
    67   6 C        2.928    -0.029    28.715     8.788
    68   6 C        2.975     0.019    27.585     8.615
    69   6 C        2.937    -0.043    29.078     8.844
    70   6 C        2.977    -0.005    28.152     8.703
    71   6 C        2.923    -0.037    28.921     8.819
    72   6 C        2.921    -0.059    29.471     8.902
    73   6 C        2.866     0.140    24.948     8.187
    74   6 C        2.919    -0.067    29.670     8.932
    75   6 C        2.924    -0.037    28.922     8.819
    76   8 O        1.702    -0.297    18.937     5.875
    77   6 C        3.649     0.025    20.467     6.499
    78   1 H        0.926     0.078     1.998     2.210
    79   1 H        0.926     0.077     2.008     2.216
    80   1 H        0.924     0.045     2.380     2.412
    81   1 H        0.923     0.053     2.284     2.363
    82   1 H        0.924     0.063     2.166     2.302
    83   1 H        0.924     0.062     2.172     2.305
    84   1 H        0.923     0.054     2.270     2.356
    85   1 H        0.924     0.023     2.688     2.564
    86   1 H        0.924     0.063     2.159     2.298
    87   1 H        0.802     0.329     0.641     1.258
    88   1 H        0.803     0.348     0.593     1.210
    89   1 H        0.924     0.069     2.097     2.265
    90   1 H        0.924     0.059     2.216     2.328
    91   1 H        0.804     0.352     0.583     1.200
    92   1 H        0.923     0.043     2.413     2.429
    93   1 H        0.923     0.059     2.207     2.323
    94   1 H        0.923     0.083     1.949     2.183
    95   1 H        0.923     0.076     2.019     2.222
    96   1 H        0.924     0.055     2.255     2.348
    97   1 H        0.803     0.324     0.654     1.270
    98   1 H        0.803     0.322     0.657     1.274
    99   1 H        0.924     0.094     1.841     2.122
   100   1 H        0.924     0.104     1.751     2.069
   101   1 H        0.926     0.103     1.754     2.071
   102   1 H        0.926     0.059     2.209     2.324
   103   1 H        0.926     0.078     2.003     2.213
   104   1 H        0.926     0.069     2.101     2.267
   105   1 H        0.924     0.074     2.040     2.234
   106   1 H        0.924     0.082     1.960     2.189
   107   1 H        0.923     0.055     2.257     2.349
   108   1 H        0.926     0.044     2.391     2.418
   109   1 H        0.803     0.316     0.676     1.292
   110   1 H        0.926     0.049     2.336     2.390
   111   1 H        0.926     0.037     2.490     2.468
   112   1 H        0.926     0.047     2.355     2.400
   113   1 H        0.924     0.047     2.354     2.400
   114   1 H        0.924     0.053     2.280     2.362
   115   1 H        0.924     0.033     2.547     2.496
   116   1 H        0.924     0.030     2.585     2.514
   117   1 H        0.924     0.031     2.573     2.508
   118   1 H        0.924     0.021     2.720     2.579
   119   1 H        0.923     0.028     2.618     2.530
   120   1 H        0.924     0.032     2.558     2.501
   121   1 H        0.924     0.033     2.542     2.493
   122   1 H        0.924     0.033     2.549     2.497
   123   1 H        0.924     0.036     2.503     2.474
   124   1 H        0.803     0.339     0.616     1.233
   125   1 H        0.804     0.362     0.560     1.175
   126   1 H        0.923     0.017     2.777     2.606
   127   1 H        0.923     0.061     2.182     2.310
   128   1 H        0.923     0.035     2.514     2.480
   129   1 H        0.923     0.055     2.259     2.350
   130   1 H        0.923     0.030     2.585     2.514
   131   1 H        0.924     0.064     2.151     2.293
   132   1 H        0.924     0.056     2.247     2.344
   133   1 H        0.803     0.368     0.548     1.163
   134   1 H        0.804     0.365     0.555     1.170
   135   1 H        0.803     0.335     0.624     1.241
   136   1 H        0.803     0.357     0.573     1.189
   137   1 H        0.926     0.046     2.376     2.410
   138   1 H        0.926     0.074     2.042     2.235
   139   1 H        0.926     0.066     2.125     2.280
   140   1 H        0.926     0.067     2.123     2.279
   141   1 H        0.926     0.048     2.339     2.391
   142   1 H        0.926     0.059     2.209     2.324
   143   1 H        0.926     0.057     2.238     2.339
   144   1 H        0.926     0.055     2.260     2.351
   145   1 H        0.924     0.050     2.318     2.381
   146   1 H        0.924     0.052     2.300     2.372
   147   1 H        0.924     0.072     2.064     2.247

 Mol. C6AA /au·bohr⁶  :     215884.128647
 Mol. C8AA /au·bohr⁸  :    4956924.507490
 Mol. α(0) /au        :        701.952732


Wiberg/Mayer (AO) data.
largest (>0.10) Wiberg bond orders for each atom

 ---------------------------------------------------------------------------
     #   Z sym  total        # sym  WBO       # sym  WBO       # sym  WBO
 ---------------------------------------------------------------------------
     1   6 C    3.944 --     6 C    1.392     2 C    1.334    51 O    1.070
     2   6 C    3.967 --     3 C    1.386     1 C    1.334     7 C    0.989
     3   6 C    3.987 --     4 C    1.431     2 C    1.386    13 C    1.000
     4   6 C    3.982 --     3 C    1.431     5 C    1.358    78 H    0.963
     5   6 C    3.944 --     6 C    1.377     4 C    1.358    52 O    1.082
     6   6 C    3.977 --     1 C    1.392     5 C    1.377    79 H    0.960
     7   6 C    3.934 --     2 C    0.989     8 C    0.954    80 H    0.949
                            12 O    0.945
     8   6 C    3.952 --    15 O    0.990     9 C    0.964    81 H    0.954
                             7 C    0.954
     9   6 C    3.926 --    10 C    0.966     8 C    0.964    82 H    0.952
                            17 O    0.939
    10   6 C    3.934 --     9 C    0.966    11 C    0.961    16 O    0.952
                            83 H    0.952
    11   6 C    3.942 --    18 C    0.980    12 O    0.963    10 C    0.961
                            84 H    0.954
    12   8 O    2.079 --    11 C    0.963     7 C    0.945
    13   6 C    3.958 --     3 C    1.000    14 O    0.992    86 H    0.967
                            85 H    0.956
    14   8 O    1.927 --    13 C    0.992    87 H    0.848
    15   8 O    1.939 --     8 C    0.990    88 H    0.827
    16   8 O    2.088 --    20 C    0.985    10 C    0.952
    17   8 O    2.259 --    33 C    1.069     9 C    0.939    35 O    0.139
    18   6 C    3.956 --    19 O    1.013    11 C    0.980    89 H    0.966
                            90 H    0.959
    19   8 O    1.932 --    18 C    1.013    91 H    0.860
    20   6 C    3.923 --    16 O    0.985    21 O    0.959    25 C    0.953
                            92 H    0.948
    21   8 O    2.057 --    20 C    0.959    22 C    0.946
    22   6 C    3.931 --    29 C    0.981    23 C    0.967    93 H    0.956
                            21 O    0.946
    23   6 C    3.956 --    28 O    0.994    22 C    0.967    94 H    0.956
                            24 C    0.955
    24   6 C    3.961 --    26 O    1.014    25 C    0.959    23 C    0.955
                            95 H    0.953
    25   6 C    3.941 --    27 O    0.966    24 C    0.959    20 C    0.953
                            96 H    0.941
    26   8 O    1.967 --    24 C    1.014    97 H    0.864
    27   8 O    2.091 --    53 C    0.979    25 C    0.966
    28   8 O    1.971 --    23 C    0.994    98 H    0.844
    29   6 C    3.923 --    22 C    0.981   100 H    0.960    99 H    0.958
                            30 O    0.958
    30   8 O    2.287 --    31 C    1.056    29 C    0.958    32 O    0.142
    31   6 C    3.904 --    32 O    1.724    30 O    1.056    64 C    1.021
    32   8 O    2.038 --    31 C    1.724    30 O    0.142
    33   6 C    3.894 --    35 O    1.636    34 C    1.084    17 O    1.069
    34   6 C    3.963 --    36 C    1.705    33 C    1.084   101 H    0.955
                            38 C    0.112
    35   8 O    1.976 --    33 C    1.636    17 O    0.139
    36   6 C    3.978 --    34 C    1.705    37 C    1.167   102 H    0.954
    37   6 C    3.985 --    38 C    1.757    36 C    1.167   103 H    0.957
    38   6 C    3.956 --    37 C    1.757    39 C    1.051   104 H    0.952
                            34 C    0.112
    39   6 C    3.984 --    38 C    1.051   105 H    0.964    40 C    0.950
                           106 H    0.934
    40   6 C    3.948 --    41 C    1.006    42 O    0.986   107 H    0.956
                            39 C    0.950
    41   6 C    3.986 --    43 C    1.830    40 C    1.006   108 H    0.964
                            45 C    0.128
    42   8 O    1.938 --    40 C    0.986   109 H    0.862
    43   6 C    3.989 --    41 C    1.830    44 C    1.123   110 H    0.949
    44   6 C    3.989 --    45 C    1.824    43 C    1.123   111 H    0.963
    45   6 C    3.979 --    44 C    1.824    46 C    1.033   112 H    0.951
                            41 C    0.128
    46   6 C    3.996 --    45 C    1.033    47 C    1.004   113 H    0.964
                           114 H    0.950
    47   6 C    3.995 --    48 C    1.009    46 C    1.004   115 H    0.977
                           116 H    0.975
    48   6 C    3.996 --    47 C    1.009    49 C    1.007   117 H    0.976
                           118 H    0.970
    49   6 C    3.997 --    50 C    1.021    48 C    1.007   119 H    0.978
                           120 H    0.977
    50   6 C    3.996 --    49 C    1.021   122 H    0.987   121 H    0.985
                           123 H    0.979
    51   8 O    2.095 --     1 C    1.070   124 H    0.833
    52   8 O    2.092 --     5 C    1.082   125 H    0.850
    53   6 C    3.921 --    27 O    0.979    58 O    0.956    54 C    0.955
                           126 H    0.943
    54   6 C    3.955 --    62 O    0.996    55 C    0.969   127 H    0.956
                            53 C    0.955
    55   6 C    3.964 --    61 O    1.002    56 C    0.969    54 C    0.969
                           128 H    0.959
    56   6 C    3.963 --    60 O    1.001    55 C    0.969    57 C    0.968
                           129 H    0.957
    57   6 C    3.938 --    59 C    0.982    56 C    0.968   130 H    0.957
                            58 O    0.955
    58   8 O    2.061 --    53 C    0.956    57 C    0.955
    59   6 C    3.963 --    63 O    1.018    57 C    0.982   131 H    0.968
                           132 H    0.962
    60   8 O    1.942 --    56 C    1.001   133 H    0.836
    61   8 O    1.933 --    55 C    1.002   134 H    0.849
    62   8 O    1.930 --    54 C    0.996   135 H    0.855
    63   8 O    1.923 --    59 C    1.018   136 H    0.833
    64   6 C    3.984 --    69 C    1.383    65 C    1.372    31 C    1.021
    65   6 C    3.983 --    66 C    1.443    64 C    1.372   137 H    0.962
    66   6 C    3.986 --    67 C    1.447    65 C    1.443   138 H    0.955
    67   6 C    3.985 --    66 C    1.447    68 C    1.374   139 H    0.965
    68   6 C    3.986 --    69 C    1.398    67 C    1.374    70 C    1.049
    69   6 C    3.985 --    68 C    1.398    64 C    1.383   140 H    0.953
    70   6 C    3.987 --    75 C    1.382    71 C    1.371    68 C    1.049
    71   6 C    3.990 --    72 C    1.479    70 C    1.371   141 H    0.966
    72   6 C    3.987 --    71 C    1.479    73 C    1.355   142 H    0.966
                            75 C    0.102
    73   6 C    3.927 --    74 C    1.365    72 C    1.355    76 O    1.046
    74   6 C    3.987 --    75 C    1.462    73 C    1.365   143 H    0.962
    75   6 C    3.990 --    74 C    1.462    70 C    1.382   144 H    0.963
                            72 C    0.102
    76   8 O    2.198 --    73 C    1.046    77 C    0.981
    77   6 C    3.938 --    76 O    0.981   147 H    0.977   146 H    0.976
                           145 H    0.976
    78   1 H    0.993 --     4 C    0.963
    79   1 H    0.993 --     6 C    0.960
    80   1 H    0.998 --     7 C    0.949
    81   1 H    0.997 --     8 C    0.954
    82   1 H    0.996 --     9 C    0.952
    83   1 H    0.996 --    10 C    0.952
    84   1 H    0.997 --    11 C    0.954
    85   1 H    0.999 --    13 C    0.956
    86   1 H    0.996 --    13 C    0.967
    87   1 H    0.892 --    14 O    0.848
    88   1 H    0.879 --    15 O    0.827
    89   1 H    0.995 --    18 C    0.966
    90   1 H    0.997 --    18 C    0.959
    91   1 H    0.876 --    19 O    0.860
    92   1 H    0.997 --    20 C    0.948
    93   1 H    0.996 --    22 C    0.956
    94   1 H    0.993 --    23 C    0.956
    95   1 H    0.994 --    24 C    0.953
    96   1 H    0.996 --    25 C    0.941
    97   1 H    0.895 --    26 O    0.864
    98   1 H    0.896 --    28 O    0.844
    99   1 H    0.991 --    29 C    0.958
   100   1 H    0.988 --    29 C    0.960
   101   1 H    0.989 --    34 C    0.955
   102   1 H    0.996 --    36 C    0.954
   103   1 H    0.994 --    37 C    0.957
   104   1 H    0.995 --    38 C    0.952
   105   1 H    0.993 --    39 C    0.964
   106   1 H    0.982 --    39 C    0.934
   107   1 H    0.994 --    40 C    0.956
   108   1 H    0.998 --    41 C    0.964
   109   1 H    0.900 --    42 O    0.862
   110   1 H    0.998 --    43 C    0.949
   111   1 H    0.998 --    44 C    0.963
   112   1 H    0.998 --    45 C    0.951
   113   1 H    0.997 --    46 C    0.964
   114   1 H    0.996 --    46 C    0.950
   115   1 H    0.998 --    47 C    0.977
   116   1 H    0.999 --    47 C    0.975
   117   1 H    0.999 --    48 C    0.976
   118   1 H    1.000 --    48 C    0.970
   119   1 H    0.999 --    49 C    0.978
   120   1 H    0.999 --    49 C    0.977
   121   1 H    0.999 --    50 C    0.985
   122   1 H    0.999 --    50 C    0.987
   123   1 H    0.999 --    50 C    0.979
   124   1 H    0.885 --    51 O    0.833
   125   1 H    0.868 --    52 O    0.850
   126   1 H    1.000 --    53 C    0.943
   127   1 H    0.996 --    54 C    0.956
   128   1 H    0.999 --    55 C    0.959
   129   1 H    0.996 --    56 C    0.957
   130   1 H    0.999 --    57 C    0.957
   131   1 H    0.996 --    59 C    0.968
   132   1 H    0.996 --    59 C    0.962
   133   1 H    0.864 --    60 O    0.836
   134   1 H    0.866 --    61 O    0.849
   135   1 H    0.887 --    62 O    0.855
   136   1 H    0.873 --    63 O    0.833
   137   1 H    0.997 --    65 C    0.962
   138   1 H    0.994 --    66 C    0.955
   139   1 H    0.995 --    67 C    0.965
   140   1 H    0.996 --    69 C    0.953
   141   1 H    0.997 --    71 C    0.966
   142   1 H    0.996 --    72 C    0.966
   143   1 H    0.996 --    74 C    0.962
   144   1 H    0.997 --    75 C    0.963
   145   1 H    0.997 --    77 C    0.976
   146   1 H    0.997 --    77 C    0.976
   147   1 H    0.994 --    77 C    0.977
 ---------------------------------------------------------------------------

Topologies differ in total number of bonds
Writing topology from bond orders to xtbtopo.mol

molecular dipole:
                 x           y           z       tot (Debye)
 q only:       -4.019       1.320       0.211
   full:       -4.002       1.622      -0.114      10.981
molecular quadrupole (traceless):
                xx          xy          yy          xz          yz          zz
 q only:       26.671     -18.903     -11.262     -23.161       2.068     -15.409
  q+dip:       36.166     -32.458     -28.756     -25.901      -1.217      -7.410
   full:       32.615     -33.557     -25.017     -25.565      -0.219      -7.598


           -------------------------------------------------
          | TOTAL ENERGY             -242.996845632038 Eh   |
          | GRADIENT NORM               0.119985509347 Eh/α |
          | HOMO-LUMO GAP               1.517441225600 eV   |
           -------------------------------------------------

------------------------------------------------------------------------
 * finished run on 2026/06/19 at 18:53:05.296     
------------------------------------------------------------------------
 total:
 * wall-time:     0 d,  0 h,  0 min,  0.327 sec
 *  cpu-time:     0 d,  0 h,  0 min,  4.980 sec
 * ratio c/w:    15.206 speedup
 SCF:
 * wall-time:     0 d,  0 h,  0 min,  0.272 sec
 *  cpu-time:     0 d,  0 h,  0 min,  4.298 sec
 * ratio c/w:    15.777 speedup

normal termination of xtb
