      -----------------------------------------------------------      
     |                   =====================                   |     
     |                           x T B                           |     
     |                   =====================                   |     
     |                         S. Grimme                         |     
     |          Mulliken Center for Theoretical Chemistry        |     
     |                    University of Bonn                     |     
      -----------------------------------------------------------      

   * xtb version 6.7.1 (edcfbbe) compiled by 'albert@albert-system' on 2024-07-22

   xtb is free software: you can redistribute it and/or modify it under
   the terms of the GNU Lesser General Public License as published by
   the Free Software Foundation, either version 3 of the License, or
   (at your option) any later version.
   
   xtb is distributed in the hope that it will be useful,
   but WITHOUT ANY WARRANTY; without even the implied warranty of
   MERCHANTABILITY or FITNESS FOR A PARTICULAR PURPOSE.  See the
   GNU Lesser General Public License for more details.
   
   Cite this work as:
   * C. Bannwarth, E. Caldeweyher, S. Ehlert, A. Hansen, P. Pracht,
     J. Seibert, S. Spicher, S. Grimme, WIREs Comput. Mol. Sci., 2020, 11,
     e01493. DOI: 10.1002/wcms.1493
   
   for GFN2-xTB:
   * C. Bannwarth, S. Ehlert and S. Grimme., J. Chem. Theory Comput., 2019,
     15, 1652-1671. DOI: 10.1021/acs.jctc.8b01176
   for GFN1-xTB:
   * S. Grimme, C. Bannwarth, P. Shushkov, J. Chem. Theory Comput., 2017,
     13, 1989-2009. DOI: 10.1021/acs.jctc.7b00118
   for GFN0-xTB:
   * P. Pracht, E. Caldeweyher, S. Ehlert, S. Grimme, ChemRxiv, 2019, preprint.
     DOI: 10.26434/chemrxiv.8326202.v1
   for GFN-FF:
   * S. Spicher and S. Grimme, Angew. Chem. Int. Ed., 2020, 59, 15665-15673.
     DOI: 10.1002/anie.202004239
   
   for ALPB and GBSA implicit solvation:
   * S. Ehlert, M. Stahn, S. Spicher, S. Grimme, J. Chem. Theory Comput.,
     2021, 17, 4250-4261. DOI: 10.1021/acs.jctc.1c00471
   
   for ddCOSMO and CPCM-X implicit solvation:
   * M. Stahn, S. Ehlert, S. Grimme, J. Phys. Chem. A,
     2023, XX, XXXX-XXXX. DOI: 10.1021/acs.jpca.3c04382
   
   for DFT-D4:
   * E. Caldeweyher, C. Bannwarth and S. Grimme, J. Chem. Phys., 2017,
     147, 034112. DOI: 10.1063/1.4993215
   * E. Caldeweyher, S. Ehlert, A. Hansen, H. Neugebauer, S. Spicher,
     C. Bannwarth and S. Grimme, J. Chem. Phys., 2019, 150, 154122.
     DOI: 10.1063/1.5090222
   * E. Caldeweyher, J.-M. Mewes, S. Ehlert and S. Grimme, Phys. Chem. Chem. Phys.
     2020, 22, 8499-8512. DOI: 10.1039/D0CP00502A
   
   for sTDA-xTB:
   * S. Grimme and C. Bannwarth, J. Chem. Phys., 2016, 145, 054103.
     DOI: 10.1063/1.4959605
   
   in the mass-spec context:
   * V. Asgeirsson, C. Bauer and S. Grimme, Chem. Sci., 2017, 8, 4879.
     DOI: 10.1039/c7sc00601b
   * J. Koopman and S. Grimme, ACS Omega 2019, 4, 12, 15120-15133.
     DOI: 10.1021/acsomega.9b02011
   
   for metadynamics refer to:
   * S. Grimme, J. Chem. Theory Comput., 2019, 155, 2847-2862
     DOI: 10.1021/acs.jctc.9b00143
   
   for SPH calculations refer to:
   * S. Spicher and S. Grimme, J. Chem. Theory Comput., 2021, 17, 1701-1714
     DOI: 10.1021/acs.jctc.0c01306
   
   for ONIOM refer to:
   * C. Plett, A. Katbashev, S. Ehlert, S. Grimme, M. Bursch,
     Phys. Chem. Chem. Phys., 2023, 25, 17860-17868. DOI: 10.1039/D3CP02178E
   
   for DIPRO refer to:
   * J. Kohn, N. Gildemeister, S. Grimme, D. Fazzi, A. Hansen,
     J. Chem. Phys., 2023, just accepted.
   
   for PTB refer to:
   * S. Grimme, M. Mueller, A. Hansen, J. Chem. Phys., 2023, 158, 124111.
     DOI: 10.1063/5.0137838
   
   with help from (in alphabetical order)
   P. Atkinson, C. Bannwarth, F. Bohle, G. Brandenburg, E. Caldeweyher
   M. Checinski, S. Dohm, S. Ehlert, S. Ehrlich, I. Gerasimov, C. Hölzer
   A. Katbashev, J. Kohn, J. Koopman, C. Lavigne, S. Lehtola, F. März, M. Müller,
   F. Musil, H. Neugebauer, J. Pisarek, C. Plett, P. Pracht, F. Pultar,
   J. Seibert, P. Shushkov, S. Spicher, M. Stahn, M. Steiner, T. Strunk,
   J. Stückrath, T. Rose, and J. Unsleber
   
 * started run on 2026/06/19 at 18:53:05.652     
   ID    Z sym.   atoms
    1    6 C      1-11, 13, 18, 20, 22-25, 29, 31, 33, 34, 36-41, 43-50,
                  53-57, 59, 64-75, 77
    2    8 O      12, 14-17, 19, 21, 26-28, 30, 32, 35, 42, 51, 52, 58,
                  60-63, 76
    3    1 H      78-147

           -------------------------------------------------
          |                Calculation Setup                |
           -------------------------------------------------

          program call               : xtb PAPU-0089/conf05.xyz --gfn 2 --alpb octanol --chrg 0 --uhf 0 --namespace PAPU-0089/conf05_octanol
          hostname                   : cpu10
          calculation namespace      : PAPU-0089/conf05_octanol
          coordinate file            : PAPU-0089/conf05.xyz
          omp threads                :                    16


           -------------------------------------------------
          |                 G F N 2 - x T B                 |
           -------------------------------------------------

        Reference                      10.1021/acs.jctc.8b01176
      * Hamiltonian:
        H0-scaling (s, p, d)           1.850000    2.230000    2.230000
        zeta-weighting                 0.500000
      * Dispersion:
        s8                             2.700000
        a1                             0.520000
        a2                             5.000000
        s9                             5.000000
      * Repulsion:
        kExp                           1.500000    1.000000
        rExp                           1.000000
      * Coulomb:
        alpha                          2.000000
        third order                    shell-resolved
        anisotropic                    true
        a3                             3.000000
        a5                             4.000000
        cn-shift                       1.200000
        cn-exp                         4.000000
        max-rad                        5.000000

      * Solvation model:               ALPB
        Solvent                        octanol
        Parameter file                 internal GFN2-xTB/ALPB
        Dielectric constant                9.8629E+00
        Reference state                gsolv [1 M gas/solution]
        Free energy shift                  2.3397E-03 Eh       1.4682E+00 kcal/mol
        Temperature                        2.9815E+02 K
        Density                            8.3000E-01 kg/L
        Solvent mass                       1.3023E+02 g/mol
        Interaction kernel             P16
        Born radius scaling (c1)           1.5898E+00
        Born radii integrator          GBOBC
        Born offset                        0.0000E+00 a0       0.0000E+00 AA
        H-bond correction              true
        Ion screening                  false
        Surface tension                    1.0000E-05 Eh       1.5569E+01 dyn/cm
        Grid points                               230 per atom

          ...................................................
          :                      SETUP                      :
          :.................................................:
          :  # basis functions                 378          :
          :  # atomic orbitals                 378          :
          :  # shells                          224          :
          :  # electrons                       422          :
          :  max. iterations                   250          :
          :  Hamiltonian                  GFN2-xTB          :
          :  restarted?                      false          :
          :  GBSA solvation                   true          :
          :  PC potential                    false          :
          :  electronic temp.          300.0000000     K    :
          :  accuracy                    1.0000000          :
          :  -> integral cutoff          0.2500000E+02      :
          :  -> integral neglect         0.1000000E-07      :
          :  -> SCF convergence          0.1000000E-05 Eh   :
          :  -> wf. convergence          0.1000000E-03 e    :
          :  Broyden damping             0.4000000          :
          :  net charge                          0          :
          :  unpaired electrons                  0          :
          ...................................................

 iter      E             dE          RMSdq      gap      omega  full diag
   1   -245.3671547 -0.245367E+03  0.441E+00    2.18       0.0  T
   2   -245.6251738 -0.258019E+00  0.243E+00    1.70       1.0  T
   3   -245.5988838  0.262900E-01  0.112E+00    1.79       1.0  T
   4   -245.6487157 -0.498319E-01  0.353E-01    1.62       1.0  T
   5   -245.6584022 -0.968651E-02  0.142E-01    1.59       1.0  T
   6   -245.6597191 -0.131690E-02  0.632E-02    1.60       1.0  T
   7   -245.6598365 -0.117422E-03  0.278E-02    1.61       1.0  T
   8   -245.6598627 -0.262333E-04  0.121E-02    1.61       1.0  T
   9   -245.6598678 -0.505017E-05  0.621E-03    1.61       1.3  T
  10   -245.6598702 -0.240204E-05  0.291E-03    1.61       2.8  T
  11   -245.6598705 -0.343898E-06  0.150E-03    1.61       5.5  T
  12   -245.6598706 -0.572990E-07  0.677E-04    1.61      12.2  T
  13   -245.6598706 -0.203730E-07  0.286E-04    1.61      28.8  T

   *** convergence criteria satisfied after 13 iterations ***

         #    Occupation            Energy/Eh            Energy/eV
      -------------------------------------------------------------
         1        2.0000           -0.7823284             -21.2882
       ...           ...                  ...                  ...
       205        2.0000           -0.4155512             -11.3077
       206        2.0000           -0.4114289             -11.1955
       207        2.0000           -0.4099265             -11.1547
       208        2.0000           -0.4086369             -11.1196
       209        2.0000           -0.3935451             -10.7089
       210        2.0000           -0.3874957             -10.5443
       211        2.0000           -0.3779938             -10.2857 (HOMO)
       212                         -0.3187847              -8.6746 (LUMO)
       213                         -0.3036388              -8.2624
       214                         -0.2624619              -7.1420
       215                         -0.2486486              -6.7661
       216                         -0.2416423              -6.5754
       ...                                ...                  ...
       378                          0.6784041              18.4603
      -------------------------------------------------------------
                  HL-Gap            0.0592091 Eh            1.6112 eV
             Fermi-level           -0.3483893 Eh           -9.4802 eV

 SCC (total)                   0 d,  0 h,  0 min,  0.275 sec
 SCC setup                      ...        0 min,  0.004 sec (  1.394%)
 Dispersion                     ...        0 min,  0.005 sec (  1.802%)
 classical contributions        ...        0 min,  0.000 sec (  0.081%)
 integral evaluation            ...        0 min,  0.012 sec (  4.300%)
 iterations                     ...        0 min,  0.212 sec ( 76.847%)
 molecular gradient             ...        0 min,  0.041 sec ( 14.790%)
 printout                       ...        0 min,  0.002 sec (  0.771%)

         :::::::::::::::::::::::::::::::::::::::::::::::::::::
         ::                     SUMMARY                     ::
         :::::::::::::::::::::::::::::::::::::::::::::::::::::
         :: total energy            -242.999673247594 Eh    ::
         :: total w/o Gsasa/hb      -242.933199201380 Eh    ::
         :: gradient norm              0.119111466362 Eh/a0 ::
         :: HOMO-LUMO gap              1.611161059333 eV    ::
         ::.................................................::
         :: SCC energy              -245.645299703435 Eh    ::
         :: -> isotropic ES            0.538706697862 Eh    ::
         :: -> anisotropic ES         -0.028340641937 Eh    ::
         :: -> anisotropic XC          0.022480219180 Eh    ::
         :: -> dispersion             -0.201195617572 Eh    ::
         :: -> Gsolv                  -0.096352383693 Eh    ::
         ::    -> Gelec               -0.029878337479 Eh    ::
         ::    -> Gsasa               -0.031147094508 Eh    ::
         ::    -> Ghb                 -0.037666621082 Eh    ::
         ::    -> Gshift               0.002339669376 Eh    ::
         :: repulsion energy           2.645626455841 Eh    ::
         :: add. restraining           0.000000000000 Eh    ::
         :: total charge              -0.000000000000 e     ::
         :::::::::::::::::::::::::::::::::::::::::::::::::::::

           -------------------------------------------------
          |                Property Printout                |
           -------------------------------------------------

    * Orbital Energies and Occupations

         #    Occupation            Energy/Eh            Energy/eV
      -------------------------------------------------------------
         1        2.0000           -0.7823284             -21.2882
       ...           ...                  ...                  ...
       199        2.0000           -0.4274756             -11.6322
       200        2.0000           -0.4239468             -11.5362
       201        2.0000           -0.4238068             -11.5324
       202        2.0000           -0.4200681             -11.4306
       203        2.0000           -0.4189908             -11.4013
       204        2.0000           -0.4183119             -11.3828
       205        2.0000           -0.4155512             -11.3077
       206        2.0000           -0.4114289             -11.1955
       207        2.0000           -0.4099265             -11.1547
       208        2.0000           -0.4086369             -11.1196
       209        2.0000           -0.3935451             -10.7089
       210        2.0000           -0.3874957             -10.5443
       211        2.0000           -0.3779938             -10.2857 (HOMO)
       212                         -0.3187847              -8.6746 (LUMO)
       213                         -0.3036388              -8.2624
       214                         -0.2624619              -7.1420
       215                         -0.2486486              -6.7661
       216                         -0.2416423              -6.5754
       217                         -0.2348185              -6.3897
       218                         -0.2340348              -6.3684
       219                         -0.2325189              -6.3272
       220                         -0.2275298              -6.1914
       221                         -0.2066077              -5.6221
       222                         -0.1677777              -4.5655
       ...                                ...                  ...
       378                          0.6784041              18.4603
      -------------------------------------------------------------
                  HL-Gap            0.0592091 Eh            1.6112 eV
             Fermi-level           -0.3483893 Eh           -9.4802 eV

     #   Z          covCN         q      C6AA      α(0)
     1   6 C        2.843     0.141    24.929     8.183
     2   6 C        2.969    -0.056    29.386     8.892
     3   6 C        2.964    -0.002    28.070     8.690
     4   6 C        2.929    -0.076    29.886     8.965
     5   6 C        2.838     0.153    24.682     8.142
     6   6 C        2.919    -0.105    30.640     9.077
     7   6 C        3.745     0.100    18.995     6.217
     8   6 C        3.719     0.094    19.133     6.248
     9   6 C        3.752     0.094    19.078     6.229
    10   6 C        3.745     0.093    19.104     6.235
    11   6 C        3.741     0.091    19.147     6.243
    12   8 O        1.695    -0.349    19.867     6.018
    13   6 C        3.682     0.074    19.537     6.330
    14   8 O        1.652    -0.489    22.668     6.427
    15   8 O        1.651    -0.494    22.757     6.440
    16   8 O        1.698    -0.336    19.643     5.984
    17   8 O        1.702    -0.303    19.048     5.893
    18   6 C        3.675     0.069    19.646     6.351
    19   8 O        1.654    -0.474    22.345     6.381
    20   6 C        3.640     0.239    17.208     5.965
    21   8 O        1.697    -0.358    20.034     6.043
    22   6 C        3.732     0.083    19.283     6.268
    23   6 C        3.720     0.072    19.492     6.306
    24   6 C        3.724     0.085    19.264     6.267
    25   6 C        3.753     0.091    19.132     6.237
    26   8 O        1.653    -0.445    21.736     6.294
    27   8 O        1.700    -0.330    19.534     5.967
    28   8 O        1.653    -0.482    22.519     6.406
    29   6 C        3.714     0.061    19.679     6.338
    30   8 O        1.703    -0.279    18.629     5.827
    31   6 C        2.736     0.351    21.042     7.510
    32   8 O        0.857    -0.422    22.135     6.308
    33   6 C        2.728     0.360    20.892     7.483
    34   6 C        2.896    -0.093    30.327     9.029
    35   8 O        0.857    -0.473    23.187     6.456
    36   6 C        2.903    -0.003    28.111     8.693
    37   6 C        2.898    -0.054    29.338     8.881
    38   6 C        2.897    -0.010    28.258     8.716
    39   6 C        3.806    -0.084    22.097     6.692
    40   6 C        3.728     0.113    18.820     6.193
    41   6 C        2.895    -0.065    29.610     8.922
    42   8 O        1.651    -0.488    22.645     6.424
    43   6 C        2.898    -0.043    29.068     8.840
    44   6 C        2.899    -0.054    29.340     8.881
    45   6 C        2.895    -0.044    29.101     8.845
    46   6 C        3.805    -0.065    21.747     6.639
    47   6 C        3.800    -0.061    21.677     6.629
    48   6 C        3.800    -0.055    21.562     6.611
    49   6 C        3.799    -0.054    21.543     6.609
    50   6 C        3.751    -0.112    22.710     6.796
    51   8 O        1.656    -0.428    21.390     6.243
    52   8 O        1.657    -0.431    21.464     6.254
    53   6 C        3.642     0.234    17.263     5.974
    54   6 C        3.721     0.088    19.228     6.262
    55   6 C        3.723     0.095    19.116     6.244
    56   6 C        3.721     0.090    19.196     6.257
    57   6 C        3.738     0.093    19.111     6.238
    58   8 O        1.695    -0.351    19.914     6.025
    59   6 C        3.674     0.069    19.641     6.351
    60   8 O        1.653    -0.481    22.478     6.400
    61   8 O        1.654    -0.479    22.444     6.395
    62   8 O        1.652    -0.479    22.453     6.397
    63   8 O        1.654    -0.482    22.510     6.405
    64   6 C        2.971    -0.028    28.692     8.786
    65   6 C        2.930    -0.025    28.626     8.774
    66   6 C        2.920    -0.035    28.869     8.811
    67   6 C        2.928    -0.029    28.718     8.788
    68   6 C        2.975     0.019    27.583     8.615
    69   6 C        2.936    -0.041    29.017     8.834
    70   6 C        2.977    -0.005    28.144     8.702
    71   6 C        2.923    -0.037    28.916     8.818
    72   6 C        2.921    -0.059    29.470     8.902
    73   6 C        2.866     0.140    24.953     8.188
    74   6 C        2.919    -0.067    29.665     8.932
    75   6 C        2.924    -0.037    28.922     8.819
    76   8 O        1.702    -0.297    18.939     5.876
    77   6 C        3.649     0.025    20.465     6.499
    78   1 H        0.926     0.078     1.998     2.211
    79   1 H        0.926     0.077     2.008     2.216
    80   1 H        0.924     0.045     2.378     2.412
    81   1 H        0.923     0.053     2.285     2.364
    82   1 H        0.924     0.063     2.168     2.303
    83   1 H        0.923     0.064     2.148     2.292
    84   1 H        0.923     0.054     2.271     2.357
    85   1 H        0.924     0.023     2.685     2.563
    86   1 H        0.924     0.063     2.160     2.298
    87   1 H        0.802     0.329     0.641     1.258
    88   1 H        0.803     0.348     0.593     1.210
    89   1 H        0.924     0.069     2.099     2.266
    90   1 H        0.924     0.058     2.217     2.329
    91   1 H        0.804     0.352     0.583     1.199
    92   1 H        0.923     0.041     2.441     2.444
    93   1 H        0.923     0.059     2.211     2.325
    94   1 H        0.923     0.071     2.072     2.251
    95   1 H        0.923     0.075     2.035     2.231
    96   1 H        0.923     0.061     2.187     2.313
    97   1 H        0.803     0.326     0.647     1.264
    98   1 H        0.803     0.336     0.622     1.239
    99   1 H        0.924     0.097     1.808     2.103
   100   1 H        0.924     0.103     1.756     2.072
   101   1 H        0.926     0.103     1.761     2.075
   102   1 H        0.926     0.062     2.173     2.305
   103   1 H        0.926     0.078     2.004     2.214
   104   1 H        0.926     0.067     2.123     2.279
   105   1 H        0.924     0.074     2.038     2.232
   106   1 H        0.924     0.082     1.955     2.187
   107   1 H        0.923     0.056     2.241     2.341
   108   1 H        0.926     0.046     2.373     2.409
   109   1 H        0.803     0.313     0.684     1.299
   110   1 H        0.926     0.042     2.418     2.432
   111   1 H        0.926     0.039     2.460     2.453
   112   1 H        0.926     0.045     2.383     2.414
   113   1 H        0.924     0.052     2.289     2.366
   114   1 H        0.924     0.052     2.297     2.370
   115   1 H        0.924     0.034     2.528     2.487
   116   1 H        0.924     0.033     2.538     2.492
   117   1 H        0.924     0.029     2.604     2.524
   118   1 H        0.924     0.018     2.759     2.597
   119   1 H        0.924     0.030     2.586     2.515
   120   1 H        0.924     0.027     2.625     2.534
   121   1 H        0.924     0.045     2.379     2.412
   122   1 H        0.924     0.036     2.507     2.476
   123   1 H        0.924     0.033     2.547     2.496
   124   1 H        0.803     0.338     0.617     1.233
   125   1 H        0.804     0.362     0.560     1.176
   126   1 H        0.923     0.017     2.778     2.607
   127   1 H        0.923     0.061     2.189     2.314
   128   1 H        0.923     0.035     2.516     2.480
   129   1 H        0.923     0.055     2.259     2.351
   130   1 H        0.923     0.030     2.586     2.515
   131   1 H        0.924     0.064     2.151     2.294
   132   1 H        0.924     0.056     2.247     2.344
   133   1 H        0.803     0.368     0.548     1.163
   134   1 H        0.804     0.365     0.555     1.170
   135   1 H        0.803     0.335     0.624     1.241
   136   1 H        0.803     0.357     0.573     1.189
   137   1 H        0.926     0.047     2.357     2.401
   138   1 H        0.926     0.075     2.035     2.231
   139   1 H        0.926     0.067     2.122     2.278
   140   1 H        0.926     0.062     2.173     2.305
   141   1 H        0.926     0.049     2.334     2.389
   142   1 H        0.926     0.059     2.207     2.323
   143   1 H        0.926     0.056     2.241     2.341
   144   1 H        0.926     0.053     2.281     2.362
   145   1 H        0.924     0.052     2.300     2.372
   146   1 H        0.924     0.072     2.065     2.247
   147   1 H        0.924     0.050     2.320     2.382

 Mol. C6AA /au·bohr⁶  :     215886.387393
 Mol. C8AA /au·bohr⁸  :    4956974.556590
 Mol. α(0) /au        :        701.943084


Wiberg/Mayer (AO) data.
largest (>0.10) Wiberg bond orders for each atom

 ---------------------------------------------------------------------------
     #   Z sym  total        # sym  WBO       # sym  WBO       # sym  WBO
 ---------------------------------------------------------------------------
     1   6 C    3.944 --     6 C    1.392     2 C    1.334    51 O    1.070
     2   6 C    3.967 --     3 C    1.386     1 C    1.334     7 C    0.989
     3   6 C    3.987 --     4 C    1.431     2 C    1.386    13 C    1.000
     4   6 C    3.982 --     3 C    1.431     5 C    1.358    78 H    0.963
     5   6 C    3.944 --     6 C    1.377     4 C    1.358    52 O    1.081
     6   6 C    3.977 --     1 C    1.392     5 C    1.377    79 H    0.960
     7   6 C    3.934 --     2 C    0.989     8 C    0.954    80 H    0.950
                            12 O    0.945
     8   6 C    3.952 --    15 O    0.990     9 C    0.964    81 H    0.955
                             7 C    0.954
     9   6 C    3.926 --    10 C    0.966     8 C    0.964    82 H    0.952
                            17 O    0.939
    10   6 C    3.934 --     9 C    0.966    11 C    0.961    16 O    0.952
                            83 H    0.952
    11   6 C    3.942 --    18 C    0.980    12 O    0.963    10 C    0.961
                            84 H    0.954
    12   8 O    2.079 --    11 C    0.963     7 C    0.945
    13   6 C    3.958 --     3 C    1.000    14 O    0.992    86 H    0.967
                            85 H    0.956
    14   8 O    1.927 --    13 C    0.992    87 H    0.848
    15   8 O    1.939 --     8 C    0.990    88 H    0.827
    16   8 O    2.087 --    20 C    0.984    10 C    0.952
    17   8 O    2.261 --    33 C    1.070     9 C    0.939    35 O    0.139
    18   6 C    3.956 --    19 O    1.013    11 C    0.980    89 H    0.966
                            90 H    0.959
    19   8 O    1.932 --    18 C    1.013    91 H    0.860
    20   6 C    3.923 --    16 O    0.984    21 O    0.959    25 C    0.953
                            92 H    0.948
    21   8 O    2.058 --    20 C    0.959    22 C    0.948
    22   6 C    3.932 --    29 C    0.981    23 C    0.967    93 H    0.955
                            21 O    0.948
    23   6 C    3.957 --    28 O    0.992    22 C    0.967    24 C    0.959
                            94 H    0.956
    24   6 C    3.962 --    26 O    1.015    23 C    0.959    25 C    0.958
                            95 H    0.954
    25   6 C    3.940 --    27 O    0.967    24 C    0.958    20 C    0.953
                            96 H    0.941
    26   8 O    1.966 --    24 C    1.015    97 H    0.862
    27   8 O    2.092 --    53 C    0.980    25 C    0.967
    28   8 O    1.950 --    23 C    0.992    98 H    0.820
    29   6 C    3.920 --    22 C    0.981   100 H    0.960    99 H    0.958
                            30 O    0.953
    30   8 O    2.284 --    31 C    1.040    29 C    0.953    32 O    0.136
    31   6 C    3.902 --    32 O    1.724    30 O    1.040    64 C    1.023
    32   8 O    2.040 --    31 C    1.724    30 O    0.136
    33   6 C    3.895 --    35 O    1.634    34 C    1.084    17 O    1.070
    34   6 C    3.963 --    36 C    1.705    33 C    1.084   101 H    0.955
                            38 C    0.112
    35   8 O    1.975 --    33 C    1.634    17 O    0.139
    36   6 C    3.977 --    34 C    1.705    37 C    1.166   102 H    0.955
    37   6 C    3.985 --    38 C    1.760    36 C    1.166   103 H    0.957
    38   6 C    3.957 --    37 C    1.760    39 C    1.050   104 H    0.953
                            34 C    0.112
    39   6 C    3.984 --    38 C    1.050   105 H    0.964    40 C    0.950
                           106 H    0.935
    40   6 C    3.948 --    41 C    1.006    42 O    0.986   107 H    0.955
                            39 C    0.950
    41   6 C    3.987 --    43 C    1.829    40 C    1.006   108 H    0.964
                            45 C    0.128
    42   8 O    1.938 --    40 C    0.986   109 H    0.862
    43   6 C    3.990 --    41 C    1.829    44 C    1.124   110 H    0.951
    44   6 C    3.989 --    45 C    1.824    43 C    1.124   111 H    0.963
    45   6 C    3.979 --    44 C    1.824    46 C    1.032   112 H    0.951
                            41 C    0.128
    46   6 C    3.996 --    45 C    1.032    47 C    1.005   114 H    0.961
                           113 H    0.952
    47   6 C    3.995 --    48 C    1.008    46 C    1.005   116 H    0.977
                           115 H    0.976
    48   6 C    3.996 --    47 C    1.008    49 C    1.007   117 H    0.977
                           118 H    0.966
    49   6 C    3.997 --    50 C    1.021    48 C    1.007   120 H    0.978
                           119 H    0.978
    50   6 C    3.994 --    49 C    1.021   123 H    0.987   122 H    0.986
                           121 H    0.976
    51   8 O    2.095 --     1 C    1.070   124 H    0.833
    52   8 O    2.091 --     5 C    1.081   125 H    0.850
    53   6 C    3.921 --    27 O    0.980    58 O    0.956    54 C    0.955
                           126 H    0.943
    54   6 C    3.955 --    62 O    0.996    55 C    0.969   127 H    0.956
                            53 C    0.955
    55   6 C    3.964 --    61 O    1.002    56 C    0.969    54 C    0.969
                           128 H    0.959
    56   6 C    3.963 --    60 O    1.001    55 C    0.969    57 C    0.968
                           129 H    0.957
    57   6 C    3.938 --    59 C    0.982    56 C    0.968   130 H    0.957
                            58 O    0.955
    58   8 O    2.060 --    53 C    0.956    57 C    0.955
    59   6 C    3.963 --    63 O    1.018    57 C    0.982   131 H    0.968
                           132 H    0.962
    60   8 O    1.942 --    56 C    1.001   133 H    0.836
    61   8 O    1.933 --    55 C    1.002   134 H    0.850
    62   8 O    1.930 --    54 C    0.996   135 H    0.855
    63   8 O    1.923 --    59 C    1.018   136 H    0.833
    64   6 C    3.983 --    69 C    1.386    65 C    1.371    31 C    1.023
    65   6 C    3.983 --    66 C    1.444    64 C    1.371   137 H    0.962
    66   6 C    3.986 --    67 C    1.446    65 C    1.444   138 H    0.955
    67   6 C    3.984 --    66 C    1.446    68 C    1.374   139 H    0.965
    68   6 C    3.987 --    69 C    1.400    67 C    1.374    70 C    1.048
    69   6 C    3.985 --    68 C    1.400    64 C    1.386   140 H    0.955
    70   6 C    3.987 --    75 C    1.383    71 C    1.371    68 C    1.048
    71   6 C    3.990 --    72 C    1.479    70 C    1.371   141 H    0.966
    72   6 C    3.988 --    71 C    1.479    73 C    1.355   142 H    0.966
                            75 C    0.102
    73   6 C    3.927 --    74 C    1.365    72 C    1.355    76 O    1.046
    74   6 C    3.987 --    75 C    1.462    73 C    1.365   143 H    0.962
    75   6 C    3.990 --    74 C    1.462    70 C    1.383   144 H    0.964
                            72 C    0.102
    76   8 O    2.198 --    73 C    1.046    77 C    0.981
    77   6 C    3.938 --    76 O    0.981   146 H    0.977   145 H    0.976
                           147 H    0.976
    78   1 H    0.993 --     4 C    0.963
    79   1 H    0.993 --     6 C    0.960
    80   1 H    0.998 --     7 C    0.950
    81   1 H    0.997 --     8 C    0.955
    82   1 H    0.996 --     9 C    0.952
    83   1 H    0.996 --    10 C    0.952
    84   1 H    0.997 --    11 C    0.954
    85   1 H    0.999 --    13 C    0.956
    86   1 H    0.996 --    13 C    0.967
    87   1 H    0.892 --    14 O    0.848
    88   1 H    0.879 --    15 O    0.827
    89   1 H    0.995 --    18 C    0.966
    90   1 H    0.997 --    18 C    0.959
    91   1 H    0.876 --    19 O    0.860
    92   1 H    0.998 --    20 C    0.948
    93   1 H    0.996 --    22 C    0.955
    94   1 H    0.995 --    23 C    0.956
    95   1 H    0.994 --    24 C    0.954
    96   1 H    0.996 --    25 C    0.941
    97   1 H    0.893 --    26 O    0.862
    98   1 H    0.887 --    28 O    0.820
    99   1 H    0.990 --    29 C    0.958
   100   1 H    0.988 --    29 C    0.960
   101   1 H    0.989 --    34 C    0.955
   102   1 H    0.996 --    36 C    0.955
   103   1 H    0.994 --    37 C    0.957
   104   1 H    0.996 --    38 C    0.953
   105   1 H    0.993 --    39 C    0.964
   106   1 H    0.982 --    39 C    0.935
   107   1 H    0.993 --    40 C    0.955
   108   1 H    0.998 --    41 C    0.964
   109   1 H    0.902 --    42 O    0.862
   110   1 H    0.998 --    43 C    0.951
   111   1 H    0.998 --    44 C    0.963
   112   1 H    0.998 --    45 C    0.951
   113   1 H    0.997 --    46 C    0.952
   114   1 H    0.996 --    46 C    0.961
   115   1 H    0.998 --    47 C    0.976
   116   1 H    0.999 --    47 C    0.977
   117   1 H    0.999 --    48 C    0.977
   118   1 H    1.000 --    48 C    0.966
   119   1 H    0.999 --    49 C    0.978
   120   1 H    0.999 --    49 C    0.978
   121   1 H    0.998 --    50 C    0.976
   122   1 H    0.998 --    50 C    0.986
   123   1 H    0.999 --    50 C    0.987
   124   1 H    0.885 --    51 O    0.833
   125   1 H    0.868 --    52 O    0.850
   126   1 H    1.000 --    53 C    0.943
   127   1 H    0.996 --    54 C    0.956
   128   1 H    0.999 --    55 C    0.959
   129   1 H    0.997 --    56 C    0.957
   130   1 H    0.999 --    57 C    0.957
   131   1 H    0.996 --    59 C    0.968
   132   1 H    0.996 --    59 C    0.962
   133   1 H    0.864 --    60 O    0.836
   134   1 H    0.866 --    61 O    0.850
   135   1 H    0.887 --    62 O    0.855
   136   1 H    0.873 --    63 O    0.833
   137   1 H    0.997 --    65 C    0.962
   138   1 H    0.993 --    66 C    0.955
   139   1 H    0.995 --    67 C    0.965
   140   1 H    0.996 --    69 C    0.955
   141   1 H    0.997 --    71 C    0.966
   142   1 H    0.996 --    72 C    0.966
   143   1 H    0.996 --    74 C    0.962
   144   1 H    0.997 --    75 C    0.964
   145   1 H    0.997 --    77 C    0.976
   146   1 H    0.994 --    77 C    0.977
   147   1 H    0.997 --    77 C    0.976
 ---------------------------------------------------------------------------

Topologies differ in total number of bonds
Writing topology from bond orders to xtbtopo.mol

molecular dipole:
                 x           y           z       tot (Debye)
 q only:       -4.219       1.533       0.120
   full:       -4.280       1.802      -0.244      11.819
molecular quadrupole (traceless):
                xx          xy          yy          xz          yz          zz
 q only:       27.368     -19.696     -13.069     -23.984       2.877     -14.300
  q+dip:       36.360     -33.631     -29.470     -27.025      -0.162      -6.890
   full:       33.012     -34.445     -26.011     -26.501       0.732      -7.001


           -------------------------------------------------
          | TOTAL ENERGY             -242.999673247594 Eh   |
          | GRADIENT NORM               0.119111466362 Eh/α |
          | HOMO-LUMO GAP               1.611161059333 eV   |
           -------------------------------------------------

------------------------------------------------------------------------
 * finished run on 2026/06/19 at 18:53:05.976     
------------------------------------------------------------------------
 total:
 * wall-time:     0 d,  0 h,  0 min,  0.324 sec
 *  cpu-time:     0 d,  0 h,  0 min,  4.931 sec
 * ratio c/w:    15.220 speedup
 SCF:
 * wall-time:     0 d,  0 h,  0 min,  0.276 sec
 *  cpu-time:     0 d,  0 h,  0 min,  4.326 sec
 * ratio c/w:    15.659 speedup

normal termination of xtb
