      -----------------------------------------------------------      
     |                   =====================                   |     
     |                           x T B                           |     
     |                   =====================                   |     
     |                         S. Grimme                         |     
     |          Mulliken Center for Theoretical Chemistry        |     
     |                    University of Bonn                     |     
      -----------------------------------------------------------      

   * xtb version 6.7.1 (edcfbbe) compiled by 'albert@albert-system' on 2024-07-22

   xtb is free software: you can redistribute it and/or modify it under
   the terms of the GNU Lesser General Public License as published by
   the Free Software Foundation, either version 3 of the License, or
   (at your option) any later version.
   
   xtb is distributed in the hope that it will be useful,
   but WITHOUT ANY WARRANTY; without even the implied warranty of
   MERCHANTABILITY or FITNESS FOR A PARTICULAR PURPOSE.  See the
   GNU Lesser General Public License for more details.
   
   Cite this work as:
   * C. Bannwarth, E. Caldeweyher, S. Ehlert, A. Hansen, P. Pracht,
     J. Seibert, S. Spicher, S. Grimme, WIREs Comput. Mol. Sci., 2020, 11,
     e01493. DOI: 10.1002/wcms.1493
   
   for GFN2-xTB:
   * C. Bannwarth, S. Ehlert and S. Grimme., J. Chem. Theory Comput., 2019,
     15, 1652-1671. DOI: 10.1021/acs.jctc.8b01176
   for GFN1-xTB:
   * S. Grimme, C. Bannwarth, P. Shushkov, J. Chem. Theory Comput., 2017,
     13, 1989-2009. DOI: 10.1021/acs.jctc.7b00118
   for GFN0-xTB:
   * P. Pracht, E. Caldeweyher, S. Ehlert, S. Grimme, ChemRxiv, 2019, preprint.
     DOI: 10.26434/chemrxiv.8326202.v1
   for GFN-FF:
   * S. Spicher and S. Grimme, Angew. Chem. Int. Ed., 2020, 59, 15665-15673.
     DOI: 10.1002/anie.202004239
   
   for ALPB and GBSA implicit solvation:
   * S. Ehlert, M. Stahn, S. Spicher, S. Grimme, J. Chem. Theory Comput.,
     2021, 17, 4250-4261. DOI: 10.1021/acs.jctc.1c00471
   
   for ddCOSMO and CPCM-X implicit solvation:
   * M. Stahn, S. Ehlert, S. Grimme, J. Phys. Chem. A,
     2023, XX, XXXX-XXXX. DOI: 10.1021/acs.jpca.3c04382
   
   for DFT-D4:
   * E. Caldeweyher, C. Bannwarth and S. Grimme, J. Chem. Phys., 2017,
     147, 034112. DOI: 10.1063/1.4993215
   * E. Caldeweyher, S. Ehlert, A. Hansen, H. Neugebauer, S. Spicher,
     C. Bannwarth and S. Grimme, J. Chem. Phys., 2019, 150, 154122.
     DOI: 10.1063/1.5090222
   * E. Caldeweyher, J.-M. Mewes, S. Ehlert and S. Grimme, Phys. Chem. Chem. Phys.
     2020, 22, 8499-8512. DOI: 10.1039/D0CP00502A
   
   for sTDA-xTB:
   * S. Grimme and C. Bannwarth, J. Chem. Phys., 2016, 145, 054103.
     DOI: 10.1063/1.4959605
   
   in the mass-spec context:
   * V. Asgeirsson, C. Bauer and S. Grimme, Chem. Sci., 2017, 8, 4879.
     DOI: 10.1039/c7sc00601b
   * J. Koopman and S. Grimme, ACS Omega 2019, 4, 12, 15120-15133.
     DOI: 10.1021/acsomega.9b02011
   
   for metadynamics refer to:
   * S. Grimme, J. Chem. Theory Comput., 2019, 155, 2847-2862
     DOI: 10.1021/acs.jctc.9b00143
   
   for SPH calculations refer to:
   * S. Spicher and S. Grimme, J. Chem. Theory Comput., 2021, 17, 1701-1714
     DOI: 10.1021/acs.jctc.0c01306
   
   for ONIOM refer to:
   * C. Plett, A. Katbashev, S. Ehlert, S. Grimme, M. Bursch,
     Phys. Chem. Chem. Phys., 2023, 25, 17860-17868. DOI: 10.1039/D3CP02178E
   
   for DIPRO refer to:
   * J. Kohn, N. Gildemeister, S. Grimme, D. Fazzi, A. Hansen,
     J. Chem. Phys., 2023, just accepted.
   
   for PTB refer to:
   * S. Grimme, M. Mueller, A. Hansen, J. Chem. Phys., 2023, 158, 124111.
     DOI: 10.1063/5.0137838
   
   with help from (in alphabetical order)
   P. Atkinson, C. Bannwarth, F. Bohle, G. Brandenburg, E. Caldeweyher
   M. Checinski, S. Dohm, S. Ehlert, S. Ehrlich, I. Gerasimov, C. Hölzer
   A. Katbashev, J. Kohn, J. Koopman, C. Lavigne, S. Lehtola, F. März, M. Müller,
   F. Musil, H. Neugebauer, J. Pisarek, C. Plett, P. Pracht, F. Pultar,
   J. Seibert, P. Shushkov, S. Spicher, M. Stahn, M. Steiner, T. Strunk,
   J. Stückrath, T. Rose, and J. Unsleber
   
 * started run on 2026/06/19 at 18:52:29.291     
   ID    Z sym.   atoms
    1    6 C      1-11, 13, 18, 20, 22-25, 29, 31, 33, 34, 36-41, 43-50,
                  53-57, 59, 64-73
    2    8 O      12, 14-17, 19, 21, 26-28, 30, 32, 35, 42, 51, 52, 58, 60-63
    3    1 H      74-139

           -------------------------------------------------
          |                Calculation Setup                |
           -------------------------------------------------

          program call               : xtb PAPU-0077/conf02.xyz --gfn 2 --alpb octanol --chrg 0 --uhf 0 --namespace PAPU-0077/conf02_octanol
          hostname                   : cpu10
          calculation namespace      : PAPU-0077/conf02_octanol
          coordinate file            : PAPU-0077/conf02.xyz
          omp threads                :                    16


           -------------------------------------------------
          |                 G F N 2 - x T B                 |
           -------------------------------------------------

        Reference                      10.1021/acs.jctc.8b01176
      * Hamiltonian:
        H0-scaling (s, p, d)           1.850000    2.230000    2.230000
        zeta-weighting                 0.500000
      * Dispersion:
        s8                             2.700000
        a1                             0.520000
        a2                             5.000000
        s9                             5.000000
      * Repulsion:
        kExp                           1.500000    1.000000
        rExp                           1.000000
      * Coulomb:
        alpha                          2.000000
        third order                    shell-resolved
        anisotropic                    true
        a3                             3.000000
        a5                             4.000000
        cn-shift                       1.200000
        cn-exp                         4.000000
        max-rad                        5.000000

      * Solvation model:               ALPB
        Solvent                        octanol
        Parameter file                 internal GFN2-xTB/ALPB
        Dielectric constant                9.8629E+00
        Reference state                gsolv [1 M gas/solution]
        Free energy shift                  2.3397E-03 Eh       1.4682E+00 kcal/mol
        Temperature                        2.9815E+02 K
        Density                            8.3000E-01 kg/L
        Solvent mass                       1.3023E+02 g/mol
        Interaction kernel             P16
        Born radius scaling (c1)           1.5898E+00
        Born radii integrator          GBOBC
        Born offset                        0.0000E+00 a0       0.0000E+00 AA
        H-bond correction              true
        Ion screening                  false
        Surface tension                    1.0000E-05 Eh       1.5569E+01 dyn/cm
        Grid points                               230 per atom

          ...................................................
          :                      SETUP                      :
          :.................................................:
          :  # basis functions                 358          :
          :  # atomic orbitals                 358          :
          :  # shells                          212          :
          :  # electrons                       400          :
          :  max. iterations                   250          :
          :  Hamiltonian                  GFN2-xTB          :
          :  restarted?                      false          :
          :  GBSA solvation                   true          :
          :  PC potential                    false          :
          :  electronic temp.          300.0000000     K    :
          :  accuracy                    1.0000000          :
          :  -> integral cutoff          0.2500000E+02      :
          :  -> integral neglect         0.1000000E-07      :
          :  -> SCF convergence          0.1000000E-05 Eh   :
          :  -> wf. convergence          0.1000000E-03 e    :
          :  Broyden damping             0.4000000          :
          :  net charge                          0          :
          :  unpaired electrons                  0          :
          ...................................................

 iter      E             dE          RMSdq      gap      omega  full diag
   1   -232.7036900 -0.232704E+03  0.450E+00    2.17       0.0  T
   2   -232.9360096 -0.232320E+00  0.248E+00    1.56       1.0  T
   3   -232.9100777  0.259319E-01  0.111E+00    1.56       1.0  T
   4   -232.9601971 -0.501194E-01  0.322E-01    1.36       1.0  T
   5   -232.9675923 -0.739515E-02  0.127E-01    1.33       1.0  T
   6   -232.9683759 -0.783581E-03  0.612E-02    1.34       1.0  T
   7   -232.9685143 -0.138433E-03  0.268E-02    1.35       1.0  T
   8   -232.9685434 -0.290774E-04  0.115E-02    1.35       1.0  T
   9   -232.9685481 -0.469575E-05  0.503E-03    1.35       1.7  T
  10   -232.9685495 -0.139100E-05  0.227E-03    1.35       3.7  T
  11   -232.9685496 -0.178928E-06  0.119E-03    1.35       7.1  T
  12   -232.9685497 -0.267793E-07  0.609E-04    1.35      13.9  T
  13   -232.9685497 -0.215219E-07  0.240E-04    1.35      35.3  T

   *** convergence criteria satisfied after 13 iterations ***

         #    Occupation            Energy/Eh            Energy/eV
      -------------------------------------------------------------
         1        2.0000           -0.7776230             -21.1602
       ...           ...                  ...                  ...
       194        2.0000           -0.4094471             -11.1416
       195        2.0000           -0.4081626             -11.1067
       196        2.0000           -0.4052855             -11.0284
       197        2.0000           -0.4006321             -10.9018
       198        2.0000           -0.3937004             -10.7131
       199        2.0000           -0.3873215             -10.5396
       200        2.0000           -0.3698901             -10.0652 (HOMO)
       201                         -0.3204534              -8.7200 (LUMO)
       202                         -0.3002847              -8.1712
       203                         -0.2421746              -6.5899
       204                         -0.2401502              -6.5348
       205                         -0.2389124              -6.5011
       ...                                ...                  ...
       358                          0.6994938              19.0342
      -------------------------------------------------------------
                  HL-Gap            0.0494366 Eh            1.3452 eV
             Fermi-level           -0.3451718 Eh           -9.3926 eV

 SCC (total)                   0 d,  0 h,  0 min,  0.243 sec
 SCC setup                      ...        0 min,  0.003 sec (  1.203%)
 Dispersion                     ...        0 min,  0.004 sec (  1.714%)
 classical contributions        ...        0 min,  0.000 sec (  0.081%)
 integral evaluation            ...        0 min,  0.011 sec (  4.337%)
 iterations                     ...        0 min,  0.190 sec ( 77.985%)
 molecular gradient             ...        0 min,  0.034 sec ( 13.921%)
 printout                       ...        0 min,  0.002 sec (  0.743%)

         :::::::::::::::::::::::::::::::::::::::::::::::::::::
         ::                     SUMMARY                     ::
         :::::::::::::::::::::::::::::::::::::::::::::::::::::
         :: total energy            -230.454821451088 Eh    ::
         :: total w/o Gsasa/hb      -230.375911607373 Eh    ::
         :: gradient norm              0.122737025360 Eh/a0 ::
         :: HOMO-LUMO gap              1.345239384861 eV    ::
         ::.................................................::
         :: SCC energy              -232.956911195006 Eh    ::
         :: -> isotropic ES            0.542549039487 Eh    ::
         :: -> anisotropic ES         -0.027877969376 Eh    ::
         :: -> anisotropic XC          0.018870910204 Eh    ::
         :: -> dispersion             -0.189657486540 Eh    ::
         :: -> Gsolv                  -0.116299613418 Eh    ::
         ::    -> Gelec               -0.037389769702 Eh    ::
         ::    -> Gsasa               -0.030269622627 Eh    ::
         ::    -> Ghb                 -0.050979890464 Eh    ::
         ::    -> Gshift               0.002339669376 Eh    ::
         :: repulsion energy           2.502089743918 Eh    ::
         :: add. restraining           0.000000000000 Eh    ::
         :: total charge              -0.000000000000 e     ::
         :::::::::::::::::::::::::::::::::::::::::::::::::::::

           -------------------------------------------------
          |                Property Printout                |
           -------------------------------------------------

    * Orbital Energies and Occupations

         #    Occupation            Energy/Eh            Energy/eV
      -------------------------------------------------------------
         1        2.0000           -0.7776230             -21.1602
       ...           ...                  ...                  ...
       188        2.0000           -0.4156494             -11.3104
       189        2.0000           -0.4155095             -11.3066
       190        2.0000           -0.4144444             -11.2776
       191        2.0000           -0.4142630             -11.2727
       192        2.0000           -0.4121251             -11.2145
       193        2.0000           -0.4103801             -11.1670
       194        2.0000           -0.4094471             -11.1416
       195        2.0000           -0.4081626             -11.1067
       196        2.0000           -0.4052855             -11.0284
       197        2.0000           -0.4006321             -10.9018
       198        2.0000           -0.3937004             -10.7131
       199        2.0000           -0.3873215             -10.5396
       200        2.0000           -0.3698901             -10.0652 (HOMO)
       201                         -0.3204534              -8.7200 (LUMO)
       202                         -0.3002847              -8.1712
       203                         -0.2421746              -6.5899
       204                         -0.2401502              -6.5348
       205                         -0.2389124              -6.5011
       206                         -0.2373383              -6.4583
       207                         -0.2359756              -6.4212
       208                         -0.2286115              -6.2208
       209                         -0.1883367              -5.1249
       210                         -0.1706525              -4.6437
       211                         -0.1482871              -4.0351
       ...                                ...                  ...
       358                          0.6994938              19.0342
      -------------------------------------------------------------
                  HL-Gap            0.0494366 Eh            1.3452 eV
             Fermi-level           -0.3451718 Eh           -9.3926 eV

     #   Z          covCN         q      C6AA      α(0)
     1   6 C        2.841     0.145    24.830     8.166
     2   6 C        2.974    -0.024    28.602     8.773
     3   6 C        2.964    -0.002    28.082     8.692
     4   6 C        2.929    -0.082    30.048     8.990
     5   6 C        2.837     0.148    24.769     8.156
     6   6 C        2.920    -0.118    30.983     9.128
     7   6 C        3.747     0.100    19.003     6.218
     8   6 C        3.720     0.088    19.222     6.262
     9   6 C        3.763     0.105    18.898     6.197
    10   6 C        3.745     0.100    18.996     6.217
    11   6 C        3.744     0.087    19.210     6.252
    12   8 O        1.694    -0.352    19.920     6.026
    13   6 C        3.682     0.068    19.633     6.345
    14   8 O        1.653    -0.495    22.781     6.443
    15   8 O        1.651    -0.498    22.851     6.453
    16   8 O        1.698    -0.327    19.472     5.958
    17   8 O        1.702    -0.292    18.862     5.864
    18   6 C        3.676     0.076    19.529     6.332
    19   8 O        1.654    -0.473    22.320     6.378
    20   6 C        3.634     0.250    17.077     5.947
    21   8 O        1.696    -0.363    20.139     6.059
    22   6 C        3.739     0.093    19.119     6.239
    23   6 C        3.723     0.080    19.355     6.283
    24   6 C        3.723     0.086    19.261     6.267
    25   6 C        3.748     0.092    19.116     6.236
    26   8 O        1.654    -0.463    22.107     6.347
    27   8 O        1.699    -0.316    19.276     5.928
    28   8 O        1.653    -0.482    22.502     6.404
    29   6 C        3.732     0.056    19.724     6.339
    30   8 O        1.703    -0.279    18.626     5.827
    31   6 C        2.753     0.353    21.011     7.506
    32   8 O        0.857    -0.441    22.520     6.362
    33   6 C        2.734     0.355    20.971     7.498
    34   6 C        2.895    -0.095    30.392     9.039
    35   8 O        0.857    -0.488    23.526     6.503
    36   6 C        2.904    -0.003    28.096     8.691
    37   6 C        2.897    -0.055    29.356     8.884
    38   6 C        2.898    -0.008    28.216     8.709
    39   6 C        3.806    -0.087    22.161     6.702
    40   6 C        3.729     0.117    18.759     6.183
    41   6 C        2.894    -0.062    29.534     8.910
    42   8 O        1.652    -0.499    22.872     6.456
    43   6 C        2.899    -0.036    28.905     8.815
    44   6 C        2.898    -0.050    29.251     8.868
    45   6 C        2.894    -0.038    28.946     8.821
    46   6 C        3.804    -0.063    21.713     6.634
    47   6 C        3.800    -0.056    21.589     6.615
    48   6 C        3.801    -0.071    21.864     6.657
    49   6 C        3.799    -0.049    21.453     6.595
    50   6 C        3.751    -0.119    22.850     6.817
    51   8 O        1.657    -0.439    21.616     6.276
    52   8 O        1.657    -0.436    21.554     6.267
    53   6 C        3.646     0.240    17.171     5.955
    54   6 C        3.721     0.085    19.274     6.270
    55   6 C        3.723     0.096    19.104     6.242
    56   6 C        3.722     0.088    19.231     6.263
    57   6 C        3.746     0.102    18.970     6.213
    58   8 O        1.696    -0.350    19.889     6.021
    59   6 C        3.674     0.069    19.642     6.351
    60   8 O        1.653    -0.469    22.245     6.367
    61   8 O        1.654    -0.478    22.416     6.391
    62   8 O        1.654    -0.485    22.564     6.412
    63   8 O        1.652    -0.473    22.322     6.378
    64   6 C        2.965    -0.036    28.898     8.818
    65   6 C        2.927    -0.027    28.679     8.782
    66   6 C        2.915    -0.035    28.861     8.810
    67   6 C        2.922    -0.028    28.702     8.786
    68   6 C        2.990     0.017    27.623     8.621
    69   6 C        2.987     0.020    27.545     8.609
    70   6 C        2.922    -0.040    28.991     8.830
    71   6 C        2.919    -0.031    28.776     8.797
    72   6 C        2.918    -0.027    28.674     8.781
    73   6 C        2.922    -0.043    29.070     8.842
    74   1 H        0.926     0.072     2.063     2.246
    75   1 H        0.926     0.063     2.164     2.300
    76   1 H        0.923     0.069     2.102     2.267
    77   1 H        0.923     0.071     2.071     2.250
    78   1 H        0.924     0.039     2.468     2.457
    79   1 H        0.923     0.081     1.972     2.196
    80   1 H        0.923     0.051     2.308     2.376
    81   1 H        0.924     0.061     2.189     2.313
    82   1 H        0.924     0.039     2.462     2.454
    83   1 H        0.804     0.346     0.598     1.214
    84   1 H        0.803     0.335     0.624     1.241
    85   1 H        0.924     0.063     2.169     2.303
    86   1 H        0.924     0.039     2.459     2.452
    87   1 H        0.803     0.346     0.598     1.215
    88   1 H        0.923     0.001     3.042     2.728
    89   1 H        0.923     0.046     2.367     2.406
    90   1 H        0.923     0.054     2.272     2.357
    91   1 H        0.924     0.090     1.880     2.144
    92   1 H        0.924     0.080     1.978     2.199
    93   1 H        0.803     0.352     0.584     1.200
    94   1 H        0.803     0.344     0.603     1.220
    95   1 H        0.924     0.093     1.851     2.128
    96   1 H        0.924     0.091     1.867     2.137
    97   1 H        0.926     0.079     1.987     2.204
    98   1 H        0.926     0.081     1.971     2.196
    99   1 H        0.926     0.075     2.034     2.230
   100   1 H        0.926     0.079     1.985     2.203
   101   1 H        0.924     0.089     1.885     2.147
   102   1 H        0.924     0.081     1.968     2.194
   103   1 H        0.923     0.029     2.595     2.519
   104   1 H        0.926     0.047     2.360     2.402
   105   1 H        0.804     0.337     0.620     1.237
   106   1 H        0.926     0.051     2.305     2.374
   107   1 H        0.926     0.044     2.392     2.419
   108   1 H        0.926     0.037     2.492     2.469
   109   1 H        0.924     0.042     2.425     2.436
   110   1 H        0.924     0.042     2.422     2.434
   111   1 H        0.924     0.033     2.540     2.492
   112   1 H        0.924     0.026     2.641     2.542
   113   1 H        0.924     0.049     2.337     2.391
   114   1 H        0.924     0.034     2.528     2.486
   115   1 H        0.924     0.027     2.636     2.539
   116   1 H        0.924     0.013     2.840     2.635
   117   1 H        0.924     0.039     2.467     2.456
   118   1 H        0.924     0.031     2.574     2.509
   119   1 H        0.924     0.050     2.319     2.381
   120   1 H        0.804     0.362     0.560     1.176
   121   1 H        0.804     0.359     0.567     1.183
   122   1 H        0.923    -0.000     3.061     2.736
   123   1 H        0.924     0.063     2.167     2.302
   124   1 H        0.923     0.029     2.602     2.522
   125   1 H        0.923     0.044     2.399     2.422
   126   1 H        0.924     0.003     3.001     2.709
   127   1 H        0.924     0.093     1.855     2.130
   128   1 H        0.924     0.051     2.302     2.372
   129   1 H        0.803     0.366     0.553     1.168
   130   1 H        0.804     0.367     0.550     1.164
   131   1 H        0.804     0.358     0.570     1.186
   132   1 H        0.801     0.318     0.670     1.286
   133   1 H        0.926     0.058     2.227     2.334
   134   1 H        0.926     0.065     2.142     2.289
   135   1 H        0.926     0.068     2.103     2.268
   136   1 H        0.926     0.057     2.231     2.336
   137   1 H        0.926     0.052     2.291     2.367
   138   1 H        0.926     0.040     2.449     2.447
   139   1 H        0.926     0.072     2.058     2.243

 Mol. C6AA /au·bohr⁶  :     193277.857810
 Mol. C8AA /au·bohr⁸  :    4436778.431509
 Mol. α(0) /au        :        663.412550


Wiberg/Mayer (AO) data.
largest (>0.10) Wiberg bond orders for each atom

 ---------------------------------------------------------------------------
     #   Z sym  total        # sym  WBO       # sym  WBO       # sym  WBO
 ---------------------------------------------------------------------------
     1   6 C    3.940 --     6 C    1.384     2 C    1.335    51 O    1.072
     2   6 C    3.978 --     3 C    1.395     1 C    1.335     7 C    0.993
     3   6 C    3.987 --     4 C    1.428     2 C    1.395    13 C    0.997
     4   6 C    3.982 --     3 C    1.428     5 C    1.362    74 H    0.964
     5   6 C    3.944 --     6 C    1.379     4 C    1.362    52 O    1.074
     6   6 C    3.974 --     1 C    1.384     5 C    1.379    75 H    0.960
     7   6 C    3.933 --     2 C    0.993     8 C    0.950    12 O    0.947
                            76 H    0.945
     8   6 C    3.946 --    15 O    0.990     9 C    0.965     7 C    0.950
                            77 H    0.946
     9   6 C    3.925 --    10 C    0.969     8 C    0.965    78 H    0.949
                            17 O    0.936
    10   6 C    3.934 --     9 C    0.969    16 O    0.962    11 C    0.958
                            79 H    0.953
    11   6 C    3.947 --    18 C    0.982    12 O    0.969    10 C    0.958
                            80 H    0.938
    12   8 O    2.057 --    11 C    0.969     7 C    0.947
    13   6 C    3.950 --     3 C    0.997    14 O    0.984    82 H    0.967
                            81 H    0.958
    14   8 O    1.938 --    13 C    0.984    83 H    0.865
    15   8 O    1.916 --     8 C    0.990    84 H    0.842
    16   8 O    2.089 --    20 C    0.985    10 C    0.962
    17   8 O    2.276 --    33 C    1.100     9 C    0.936    35 O    0.147
    18   6 C    3.961 --    19 O    1.012    11 C    0.982    85 H    0.966
                            86 H    0.964
    19   8 O    1.935 --    18 C    1.012    87 H    0.865
    20   6 C    3.926 --    16 O    0.985    25 C    0.954    21 O    0.952
                            88 H    0.941
    21   8 O    2.058 --    20 C    0.952    22 C    0.950
    22   6 C    3.935 --    29 C    0.980    23 C    0.967    89 H    0.954
                            21 O    0.950
    23   6 C    3.962 --    28 O    0.999    24 C    0.967    22 C    0.967
                            90 H    0.956
    24   6 C    3.958 --    26 O    1.009    23 C    0.967    25 C    0.958
                            91 H    0.938
    25   6 C    3.938 --    27 O    0.968    24 C    0.958    92 H    0.954
                            20 C    0.954
    26   8 O    1.954 --    24 C    1.009    93 H    0.853
    27   8 O    2.091 --    53 C    0.985    25 C    0.968
    28   8 O    1.929 --    23 C    0.999    94 H    0.839
    29   6 C    3.924 --    22 C    0.980    96 H    0.961    30 O    0.960
                            95 H    0.952
    30   8 O    2.278 --    31 C    1.066    29 C    0.960    32 O    0.143
    31   6 C    3.899 --    32 O    1.687    30 O    1.066    64 C    1.038
    32   8 O    2.035 --    31 C    1.687    30 O    0.143
    33   6 C    3.897 --    35 O    1.606    17 O    1.100    34 C    1.079
    34   6 C    3.970 --    36 C    1.697    33 C    1.079    97 H    0.961
                            38 C    0.109
    35   8 O    1.977 --    33 C    1.606    17 O    0.147
    36   6 C    3.970 --    34 C    1.697    37 C    1.167    98 H    0.954
    37   6 C    3.984 --    38 C    1.760    36 C    1.167    99 H    0.958
    38   6 C    3.967 --    37 C    1.760    39 C    1.049   100 H    0.956
                            34 C    0.109
    39   6 C    3.985 --    38 C    1.049    40 C    0.968   102 H    0.949
                           101 H    0.935
    40   6 C    3.954 --    41 C    1.009    42 O    0.981    39 C    0.968
                           103 H    0.955
    41   6 C    3.976 --    43 C    1.835    40 C    1.009   104 H    0.964
                            45 C    0.128
    42   8 O    1.922 --    40 C    0.981   105 H    0.871
    43   6 C    3.990 --    41 C    1.835    44 C    1.122   106 H    0.960
    44   6 C    3.990 --    45 C    1.830    43 C    1.122   107 H    0.962
    45   6 C    3.981 --    44 C    1.830    46 C    1.032   108 H    0.966
                            41 C    0.128
    46   6 C    3.995 --    45 C    1.032    47 C    0.984   110 H    0.972
                           109 H    0.968
    47   6 C    3.989 --    48 C    1.009    46 C    0.984   112 H    0.976
                           111 H    0.976
    48   6 C    3.994 --    47 C    1.009    49 C    1.006   114 H    0.976
                           113 H    0.964
    49   6 C    3.997 --    50 C    1.021    48 C    1.006   115 H    0.978
                           116 H    0.975
    50   6 C    3.994 --    49 C    1.021   118 H    0.987   119 H    0.978
                           117 H    0.977
    51   8 O    2.089 --     1 C    1.072   120 H    0.848
    52   8 O    2.083 --     5 C    1.074   121 H    0.852
    53   6 C    3.924 --    27 O    0.985    58 O    0.954    54 C    0.954
                           122 H    0.945
    54   6 C    3.957 --    62 O    0.999    55 C    0.969    53 C    0.954
                           123 H    0.953
    55   6 C    3.966 --    61 O    1.003    54 C    0.969    56 C    0.968
                           124 H    0.959
    56   6 C    3.969 --    60 O    1.008    55 C    0.968    57 C    0.966
                           125 H    0.952
    57   6 C    3.939 --    59 C    0.981    56 C    0.966    58 O    0.952
                           126 H    0.940
    58   8 O    2.073 --    53 C    0.954    57 C    0.952
    59   6 C    3.949 --    63 O    1.006    57 C    0.981   128 H    0.963
                           127 H    0.958
    60   8 O    1.938 --    56 C    1.008   129 H    0.841
    61   8 O    1.934 --    55 C    1.003   130 H    0.848
    62   8 O    1.925 --    54 C    0.999   131 H    0.854
    63   8 O    1.940 --    59 C    1.006   132 H    0.859
    64   6 C    3.980 --    65 C    1.472    69 C    1.220    31 C    1.038
                            67 C    0.102
    65   6 C    3.988 --    64 C    1.472    66 C    1.347   133 H    0.964
    66   6 C    3.990 --    67 C    1.536    65 C    1.347   134 H    0.967
    67   6 C    3.986 --    66 C    1.536    68 C    1.279   135 H    0.965
                            64 C    0.102
    68   6 C    3.990 --    67 C    1.279    70 C    1.274    69 C    1.258
    69   6 C    3.988 --    73 C    1.294    68 C    1.258    64 C    1.220
    70   6 C    3.989 --    71 C    1.557    68 C    1.274   136 H    0.966
                            73 C    0.119
    71   6 C    3.991 --    70 C    1.557    72 C    1.326   137 H    0.969
    72   6 C    3.990 --    73 C    1.546    71 C    1.326   138 H    0.967
    73   6 C    3.987 --    72 C    1.546    69 C    1.294   139 H    0.950
                            70 C    0.119
    74   1 H    0.994 --     4 C    0.964
    75   1 H    0.995 --     6 C    0.960
    76   1 H    0.995 --     7 C    0.945
    77   1 H    0.995 --     8 C    0.946
    78   1 H    0.998 --     9 C    0.949
    79   1 H    0.993 --    10 C    0.953
    80   1 H    0.997 --    11 C    0.938
    81   1 H    0.996 --    13 C    0.958
    82   1 H    0.998 --    13 C    0.967
    83   1 H    0.880 --    14 O    0.865
    84   1 H    0.887 --    15 O    0.842
    85   1 H    0.996 --    18 C    0.966
    86   1 H    0.998 --    18 C    0.964
    87   1 H    0.880 --    19 O    0.865
    88   1 H    1.000 --    20 C    0.941
    89   1 H    0.997 --    22 C    0.954
    90   1 H    0.997 --    23 C    0.956
    91   1 H    0.992 --    24 C    0.938
    92   1 H    0.993 --    25 C    0.954
    93   1 H    0.876 --    26 O    0.853
    94   1 H    0.882 --    28 O    0.839
    95   1 H    0.991 --    29 C    0.952
    96   1 H    0.990 --    29 C    0.961
    97   1 H    0.994 --    34 C    0.961
    98   1 H    0.993 --    36 C    0.954
    99   1 H    0.994 --    37 C    0.958
   100   1 H    0.994 --    38 C    0.956
   101   1 H    0.981 --    39 C    0.935
   102   1 H    0.991 --    39 C    0.949
   103   1 H    0.995 --    40 C    0.955
   104   1 H    0.998 --    41 C    0.964
   105   1 H    0.886 --    42 O    0.871
   106   1 H    0.997 --    43 C    0.960
   107   1 H    0.998 --    44 C    0.962
   108   1 H    0.999 --    45 C    0.966
   109   1 H    0.995 --    46 C    0.968
   110   1 H    0.998 --    46 C    0.972
   111   1 H    0.998 --    47 C    0.976
   112   1 H    0.999 --    47 C    0.976
   113   1 H    0.998 --    48 C    0.964
   114   1 H    0.999 --    48 C    0.976
   115   1 H    0.999 --    49 C    0.978
   116   1 H    1.000 --    49 C    0.975
   117   1 H    0.999 --    50 C    0.977
   118   1 H    0.999 --    50 C    0.987
   119   1 H    0.997 --    50 C    0.978
   120   1 H    0.868 --    51 O    0.848
   121   1 H    0.870 --    52 O    0.852
   122   1 H    1.000 --    53 C    0.945
   123   1 H    0.996 --    54 C    0.953
   124   1 H    0.999 --    55 C    0.959
   125   1 H    0.998 --    56 C    0.952
   126   1 H    1.000 --    57 C    0.940
   127   1 H    0.991 --    59 C    0.958
   128   1 H    0.997 --    59 C    0.963
   129   1 H    0.866 --    60 O    0.841
   130   1 H    0.865 --    61 O    0.848
   131   1 H    0.872 --    62 O    0.854
   132   1 H    0.899 --    63 O    0.859
   133   1 H    0.996 --    65 C    0.964
   134   1 H    0.995 --    66 C    0.967
   135   1 H    0.994 --    67 C    0.965
   136   1 H    0.996 --    70 C    0.966
   137   1 H    0.996 --    71 C    0.969
   138   1 H    0.998 --    72 C    0.967
   139   1 H    0.994 --    73 C    0.950
 ---------------------------------------------------------------------------

Topologies differ in total number of bonds
Writing topology from bond orders to xtbtopo.mol

molecular dipole:
                 x           y           z       tot (Debye)
 q only:       -0.521      -1.653       0.378
   full:       -0.865      -2.268       0.615       6.365
molecular quadrupole (traceless):
                xx          xy          yy          xz          yz          zz
 q only:       52.555     -43.624      -8.462     -39.643       7.856     -44.093
  q+dip:       38.309     -45.471      -0.620     -48.970      10.194     -37.689
   full:       38.351     -47.604      -1.569     -50.963       9.848     -36.782


           -------------------------------------------------
          | TOTAL ENERGY             -230.454821451088 Eh   |
          | GRADIENT NORM               0.122737025360 Eh/α |
          | HOMO-LUMO GAP               1.345239384861 eV   |
           -------------------------------------------------

------------------------------------------------------------------------
 * finished run on 2026/06/19 at 18:52:29.603     
------------------------------------------------------------------------
 total:
 * wall-time:     0 d,  0 h,  0 min,  0.311 sec
 *  cpu-time:     0 d,  0 h,  0 min,  4.451 sec
 * ratio c/w:    14.297 speedup
 SCF:
 * wall-time:     0 d,  0 h,  0 min,  0.244 sec
 *  cpu-time:     0 d,  0 h,  0 min,  3.803 sec
 * ratio c/w:    15.574 speedup

normal termination of xtb
