      -----------------------------------------------------------      
     |                   =====================                   |     
     |                           x T B                           |     
     |                   =====================                   |     
     |                         S. Grimme                         |     
     |          Mulliken Center for Theoretical Chemistry        |     
     |                    University of Bonn                     |     
      -----------------------------------------------------------      

   * xtb version 6.7.1 (edcfbbe) compiled by 'albert@albert-system' on 2024-07-22

   xtb is free software: you can redistribute it and/or modify it under
   the terms of the GNU Lesser General Public License as published by
   the Free Software Foundation, either version 3 of the License, or
   (at your option) any later version.
   
   xtb is distributed in the hope that it will be useful,
   but WITHOUT ANY WARRANTY; without even the implied warranty of
   MERCHANTABILITY or FITNESS FOR A PARTICULAR PURPOSE.  See the
   GNU Lesser General Public License for more details.
   
   Cite this work as:
   * C. Bannwarth, E. Caldeweyher, S. Ehlert, A. Hansen, P. Pracht,
     J. Seibert, S. Spicher, S. Grimme, WIREs Comput. Mol. Sci., 2020, 11,
     e01493. DOI: 10.1002/wcms.1493
   
   for GFN2-xTB:
   * C. Bannwarth, S. Ehlert and S. Grimme., J. Chem. Theory Comput., 2019,
     15, 1652-1671. DOI: 10.1021/acs.jctc.8b01176
   for GFN1-xTB:
   * S. Grimme, C. Bannwarth, P. Shushkov, J. Chem. Theory Comput., 2017,
     13, 1989-2009. DOI: 10.1021/acs.jctc.7b00118
   for GFN0-xTB:
   * P. Pracht, E. Caldeweyher, S. Ehlert, S. Grimme, ChemRxiv, 2019, preprint.
     DOI: 10.26434/chemrxiv.8326202.v1
   for GFN-FF:
   * S. Spicher and S. Grimme, Angew. Chem. Int. Ed., 2020, 59, 15665-15673.
     DOI: 10.1002/anie.202004239
   
   for ALPB and GBSA implicit solvation:
   * S. Ehlert, M. Stahn, S. Spicher, S. Grimme, J. Chem. Theory Comput.,
     2021, 17, 4250-4261. DOI: 10.1021/acs.jctc.1c00471
   
   for ddCOSMO and CPCM-X implicit solvation:
   * M. Stahn, S. Ehlert, S. Grimme, J. Phys. Chem. A,
     2023, XX, XXXX-XXXX. DOI: 10.1021/acs.jpca.3c04382
   
   for DFT-D4:
   * E. Caldeweyher, C. Bannwarth and S. Grimme, J. Chem. Phys., 2017,
     147, 034112. DOI: 10.1063/1.4993215
   * E. Caldeweyher, S. Ehlert, A. Hansen, H. Neugebauer, S. Spicher,
     C. Bannwarth and S. Grimme, J. Chem. Phys., 2019, 150, 154122.
     DOI: 10.1063/1.5090222
   * E. Caldeweyher, J.-M. Mewes, S. Ehlert and S. Grimme, Phys. Chem. Chem. Phys.
     2020, 22, 8499-8512. DOI: 10.1039/D0CP00502A
   
   for sTDA-xTB:
   * S. Grimme and C. Bannwarth, J. Chem. Phys., 2016, 145, 054103.
     DOI: 10.1063/1.4959605
   
   in the mass-spec context:
   * V. Asgeirsson, C. Bauer and S. Grimme, Chem. Sci., 2017, 8, 4879.
     DOI: 10.1039/c7sc00601b
   * J. Koopman and S. Grimme, ACS Omega 2019, 4, 12, 15120-15133.
     DOI: 10.1021/acsomega.9b02011
   
   for metadynamics refer to:
   * S. Grimme, J. Chem. Theory Comput., 2019, 155, 2847-2862
     DOI: 10.1021/acs.jctc.9b00143
   
   for SPH calculations refer to:
   * S. Spicher and S. Grimme, J. Chem. Theory Comput., 2021, 17, 1701-1714
     DOI: 10.1021/acs.jctc.0c01306
   
   for ONIOM refer to:
   * C. Plett, A. Katbashev, S. Ehlert, S. Grimme, M. Bursch,
     Phys. Chem. Chem. Phys., 2023, 25, 17860-17868. DOI: 10.1039/D3CP02178E
   
   for DIPRO refer to:
   * J. Kohn, N. Gildemeister, S. Grimme, D. Fazzi, A. Hansen,
     J. Chem. Phys., 2023, just accepted.
   
   for PTB refer to:
   * S. Grimme, M. Mueller, A. Hansen, J. Chem. Phys., 2023, 158, 124111.
     DOI: 10.1063/5.0137838
   
   with help from (in alphabetical order)
   P. Atkinson, C. Bannwarth, F. Bohle, G. Brandenburg, E. Caldeweyher
   M. Checinski, S. Dohm, S. Ehlert, S. Ehrlich, I. Gerasimov, C. Hölzer
   A. Katbashev, J. Kohn, J. Koopman, C. Lavigne, S. Lehtola, F. März, M. Müller,
   F. Musil, H. Neugebauer, J. Pisarek, C. Plett, P. Pracht, F. Pultar,
   J. Seibert, P. Shushkov, S. Spicher, M. Stahn, M. Steiner, T. Strunk,
   J. Stückrath, T. Rose, and J. Unsleber
   
 * started run on 2026/06/19 at 18:52:29.616     
   ID    Z sym.   atoms
    1    6 C      1-11, 13, 18, 20, 22-25, 29, 31, 33, 34, 36-41, 43-50,
                  53-57, 59, 64-73
    2    8 O      12, 14-17, 19, 21, 26-28, 30, 32, 35, 42, 51, 52, 58, 60-63
    3    1 H      74-139

           -------------------------------------------------
          |                Calculation Setup                |
           -------------------------------------------------

          program call               : xtb PAPU-0077/conf03.xyz --gfn 2 --alpb water --chrg 0 --uhf 0 --namespace PAPU-0077/conf03_water
          hostname                   : cpu10
          calculation namespace      : PAPU-0077/conf03_water
          coordinate file            : PAPU-0077/conf03.xyz
          omp threads                :                    16


           -------------------------------------------------
          |                 G F N 2 - x T B                 |
           -------------------------------------------------

        Reference                      10.1021/acs.jctc.8b01176
      * Hamiltonian:
        H0-scaling (s, p, d)           1.850000    2.230000    2.230000
        zeta-weighting                 0.500000
      * Dispersion:
        s8                             2.700000
        a1                             0.520000
        a2                             5.000000
        s9                             5.000000
      * Repulsion:
        kExp                           1.500000    1.000000
        rExp                           1.000000
      * Coulomb:
        alpha                          2.000000
        third order                    shell-resolved
        anisotropic                    true
        a3                             3.000000
        a5                             4.000000
        cn-shift                       1.200000
        cn-exp                         4.000000
        max-rad                        5.000000

      * Solvation model:               ALPB
        Solvent                        water
        Parameter file                 internal GFN2-xTB/ALPB
        Dielectric constant                8.0200E+01
        Reference state                gsolv [1 M gas/solution]
        Free energy shift                  1.0808E-03 Eh       6.7819E-01 kcal/mol
        Temperature                        2.9815E+02 K
        Density                            1.0000E+00 kg/L
        Solvent mass                       1.8000E+01 g/mol
        Interaction kernel             P16
        Born radius scaling (c1)           1.4744E+00
        Born radii integrator          GBOBC
        Born offset                        0.0000E+00 a0       0.0000E+00 AA
        H-bond correction              true
        Ion screening                  false
        Surface tension                    1.0000E-05 Eh       1.5569E+01 dyn/cm
        Grid points                               230 per atom

          ...................................................
          :                      SETUP                      :
          :.................................................:
          :  # basis functions                 358          :
          :  # atomic orbitals                 358          :
          :  # shells                          212          :
          :  # electrons                       400          :
          :  max. iterations                   250          :
          :  Hamiltonian                  GFN2-xTB          :
          :  restarted?                      false          :
          :  GBSA solvation                   true          :
          :  PC potential                    false          :
          :  electronic temp.          300.0000000     K    :
          :  accuracy                    1.0000000          :
          :  -> integral cutoff          0.2500000E+02      :
          :  -> integral neglect         0.1000000E-07      :
          :  -> SCF convergence          0.1000000E-05 Eh   :
          :  -> wf. convergence          0.1000000E-03 e    :
          :  Broyden damping             0.4000000          :
          :  net charge                          0          :
          :  unpaired electrons                  0          :
          ...................................................

 iter      E             dE          RMSdq      gap      omega  full diag
   1   -232.6817541 -0.232682E+03  0.454E+00    2.20       0.0  T
   2   -232.9111496 -0.229396E+00  0.249E+00    1.67       1.0  T
   3   -232.8881387  0.230109E-01  0.106E+00    1.58       1.0  T
   4   -232.9333987 -0.452600E-01  0.322E-01    1.35       1.0  T
   5   -232.9399056 -0.650688E-02  0.129E-01    1.34       1.0  T
   6   -232.9405199 -0.614323E-03  0.664E-02    1.34       1.0  T
   7   -232.9406642 -0.144296E-03  0.303E-02    1.34       1.0  T
   8   -232.9407002 -0.360229E-04  0.135E-02    1.34       1.0  T
   9   -232.9407064 -0.618666E-05  0.664E-03    1.34       1.3  T
  10   -232.9407080 -0.162003E-05  0.369E-03    1.34       2.3  T
  11   -232.9407086 -0.534088E-06  0.189E-03    1.33       4.5  T
  12   -232.9407087 -0.949193E-07  0.823E-04    1.33      10.3  T
  13   -232.9407087 -0.354747E-07  0.382E-04    1.33      22.2  T

   *** convergence criteria satisfied after 13 iterations ***

         #    Occupation            Energy/Eh            Energy/eV
      -------------------------------------------------------------
         1        2.0000           -0.7736268             -21.0515
       ...           ...                  ...                  ...
       194        2.0000           -0.4057377             -11.0407
       195        2.0000           -0.4050361             -11.0216
       196        2.0000           -0.4028185             -10.9612
       197        2.0000           -0.4005163             -10.8986
       198        2.0000           -0.3907617             -10.6332
       199        2.0000           -0.3828007             -10.4165
       200        2.0000           -0.3627292              -9.8704 (HOMO)
       201                         -0.3136944              -8.5361 (LUMO)
       202                         -0.2974997              -8.0954
       203                         -0.2400569              -6.5323
       204                         -0.2368966              -6.4463
       205                         -0.2329289              -6.3383
       ...                                ...                  ...
       358                          0.7022705              19.1098
      -------------------------------------------------------------
                  HL-Gap            0.0490348 Eh            1.3343 eV
             Fermi-level           -0.3382118 Eh           -9.2032 eV

 SCC (total)                   0 d,  0 h,  0 min,  0.244 sec
 SCC setup                      ...        0 min,  0.003 sec (  1.075%)
 Dispersion                     ...        0 min,  0.004 sec (  1.694%)
 classical contributions        ...        0 min,  0.000 sec (  0.068%)
 integral evaluation            ...        0 min,  0.011 sec (  4.492%)
 iterations                     ...        0 min,  0.191 sec ( 78.250%)
 molecular gradient             ...        0 min,  0.034 sec ( 13.890%)
 printout                       ...        0 min,  0.001 sec (  0.514%)

         :::::::::::::::::::::::::::::::::::::::::::::::::::::
         ::                     SUMMARY                     ::
         :::::::::::::::::::::::::::::::::::::::::::::::::::::
         :: total energy            -230.428346857854 Eh    ::
         :: total w/o Gsasa/hb      -230.386857059142 Eh    ::
         :: gradient norm              0.121916951134 Eh/a0 ::
         :: HOMO-LUMO gap              1.334305825068 eV    ::
         ::.................................................::
         :: SCC energy              -232.929304446454 Eh    ::
         :: -> isotropic ES            0.564046114554 Eh    ::
         :: -> anisotropic ES         -0.030737385255 Eh    ::
         :: -> anisotropic XC          0.019284259139 Eh    ::
         :: -> dispersion             -0.189473753138 Eh    ::
         :: -> Gsolv                  -0.103522742167 Eh    ::
         ::    -> Gelec               -0.062032943455 Eh    ::
         ::    -> Gsasa                0.006781963567 Eh    ::
         ::    -> Ghb                 -0.049352521977 Eh    ::
         ::    -> Gshift               0.001080759698 Eh    ::
         :: repulsion energy           2.500957588600 Eh    ::
         :: add. restraining           0.000000000000 Eh    ::
         :: total charge              -0.000000000000 e     ::
         :::::::::::::::::::::::::::::::::::::::::::::::::::::

           -------------------------------------------------
          |                Property Printout                |
           -------------------------------------------------

    * Orbital Energies and Occupations

         #    Occupation            Energy/Eh            Energy/eV
      -------------------------------------------------------------
         1        2.0000           -0.7736268             -21.0515
       ...           ...                  ...                  ...
       188        2.0000           -0.4121228             -11.2144
       189        2.0000           -0.4111764             -11.1887
       190        2.0000           -0.4091695             -11.1341
       191        2.0000           -0.4084835             -11.1154
       192        2.0000           -0.4079674             -11.1014
       193        2.0000           -0.4067581             -11.0685
       194        2.0000           -0.4057377             -11.0407
       195        2.0000           -0.4050361             -11.0216
       196        2.0000           -0.4028185             -10.9612
       197        2.0000           -0.4005163             -10.8986
       198        2.0000           -0.3907617             -10.6332
       199        2.0000           -0.3828007             -10.4165
       200        2.0000           -0.3627292              -9.8704 (HOMO)
       201                         -0.3136944              -8.5361 (LUMO)
       202                         -0.2974997              -8.0954
       203                         -0.2400569              -6.5323
       204                         -0.2368966              -6.4463
       205                         -0.2329289              -6.3383
       206                         -0.2322808              -6.3207
       207                         -0.2291244              -6.2348
       208                         -0.2239394              -6.0937
       209                         -0.1855742              -5.0497
       210                         -0.1638538              -4.4587
       211                         -0.1453824              -3.9561
       ...                                ...                  ...
       358                          0.7022705              19.1098
      -------------------------------------------------------------
                  HL-Gap            0.0490348 Eh            1.3343 eV
             Fermi-level           -0.3382118 Eh           -9.2032 eV

     #   Z          covCN         q      C6AA      α(0)
     1   6 C        2.841     0.144    24.871     8.173
     2   6 C        2.974    -0.026    28.651     8.780
     3   6 C        2.964    -0.002    28.079     8.692
     4   6 C        2.929    -0.079    29.968     8.978
     5   6 C        2.837     0.145    24.848     8.169
     6   6 C        2.920    -0.112    30.824     9.104
     7   6 C        3.747     0.102    18.964     6.211
     8   6 C        3.720     0.092    19.170     6.253
     9   6 C        3.765     0.106    18.877     6.193
    10   6 C        3.744     0.102    18.972     6.214
    11   6 C        3.745     0.090    19.156     6.244
    12   8 O        1.694    -0.351    19.913     6.025
    13   6 C        3.682     0.072    19.576     6.336
    14   8 O        1.653    -0.509    23.085     6.486
    15   8 O        1.651    -0.499    22.880     6.457
    16   8 O        1.698    -0.335    19.612     5.979
    17   8 O        1.702    -0.295    18.900     5.870
    18   6 C        3.676     0.081    19.449     6.319
    19   8 O        1.654    -0.483    22.524     6.407
    20   6 C        3.634     0.251    17.059     5.944
    21   8 O        1.696    -0.369    20.248     6.075
    22   6 C        3.740     0.100    19.007     6.221
    23   6 C        3.723     0.085    19.277     6.270
    24   6 C        3.723     0.093    19.150     6.249
    25   6 C        3.753     0.092    19.110     6.234
    26   8 O        1.653    -0.468    22.212     6.362
    27   8 O        1.699    -0.320    19.340     5.937
    28   8 O        1.653    -0.482    22.514     6.405
    29   6 C        3.732     0.062    19.633     6.325
    30   8 O        1.703    -0.274    18.541     5.814
    31   6 C        2.753     0.350    21.050     7.513
    32   8 O        0.857    -0.459    22.892     6.415
    33   6 C        2.737     0.355    20.970     7.498
    34   6 C        2.895    -0.088    30.204     9.011
    35   8 O        0.858    -0.498    23.738     6.532
    36   6 C        2.904     0.001    28.002     8.677
    37   6 C        2.897    -0.049    29.227     8.864
    38   6 C        2.899    -0.004    28.118     8.694
    39   6 C        3.806    -0.084    22.096     6.692
    40   6 C        3.729     0.118    18.746     6.181
    41   6 C        2.894    -0.063    29.558     8.914
    42   8 O        1.652    -0.515    23.228     6.506
    43   6 C        2.897    -0.039    28.960     8.823
    44   6 C        2.896    -0.056    29.382     8.887
    45   6 C        2.894    -0.049    29.210     8.861
    46   6 C        3.805    -0.063    21.705     6.632
    47   6 C        3.801    -0.063    21.712     6.634
    48   6 C        3.800    -0.060    21.650     6.625
    49   6 C        3.798    -0.055    21.571     6.613
    50   6 C        3.750    -0.103    22.528     6.769
    51   8 O        1.657    -0.453    21.913     6.319
    52   8 O        1.657    -0.452    21.890     6.316
    53   6 C        3.653     0.240    17.150     5.947
    54   6 C        3.722     0.090    19.195     6.257
    55   6 C        3.723     0.101    19.025     6.229
    56   6 C        3.721     0.092    19.160     6.251
    57   6 C        3.747     0.104    18.929     6.206
    58   8 O        1.696    -0.362    20.111     6.055
    59   6 C        3.674     0.072    19.602     6.344
    60   8 O        1.653    -0.475    22.361     6.383
    61   8 O        1.654    -0.487    22.615     6.420
    62   8 O        1.654    -0.494    22.768     6.441
    63   8 O        1.652    -0.479    22.445     6.395
    64   6 C        2.965    -0.032    28.804     8.803
    65   6 C        2.927    -0.024    28.615     8.773
    66   6 C        2.915    -0.034    28.850     8.808
    67   6 C        2.922    -0.027    28.683     8.783
    68   6 C        2.990     0.017    27.630     8.623
    69   6 C        2.987     0.021    27.538     8.608
    70   6 C        2.922    -0.039    28.974     8.827
    71   6 C        2.919    -0.032    28.790     8.799
    72   6 C        2.918    -0.026    28.650     8.777
    73   6 C        2.922    -0.040    28.986     8.829
    74   1 H        0.926     0.068     2.112     2.273
    75   1 H        0.926     0.069     2.098     2.265
    76   1 H        0.923     0.058     2.222     2.331
    77   1 H        0.923     0.068     2.109     2.271
    78   1 H        0.924     0.039     2.461     2.453
    79   1 H        0.923     0.081     1.965     2.192
    80   1 H        0.923     0.043     2.416     2.431
    81   1 H        0.924     0.057     2.235     2.338
    82   1 H        0.924     0.040     2.453     2.449
    83   1 H        0.804     0.358     0.570     1.186
    84   1 H        0.803     0.335     0.625     1.242
    85   1 H        0.924     0.061     2.189     2.314
    86   1 H        0.924     0.042     2.427     2.436
    87   1 H        0.803     0.352     0.583     1.199
    88   1 H        0.923    -0.001     3.077     2.743
    89   1 H        0.923     0.046     2.370     2.408
    90   1 H        0.923     0.058     2.223     2.332
    91   1 H        0.923     0.074     2.040     2.234
    92   1 H        0.923     0.082     1.956     2.187
    93   1 H        0.803     0.361     0.563     1.179
    94   1 H        0.803     0.345     0.601     1.218
    95   1 H        0.924     0.088     1.896     2.153
    96   1 H        0.924     0.101     1.779     2.086
    97   1 H        0.926     0.075     2.028     2.227
    98   1 H        0.926     0.081     1.967     2.193
    99   1 H        0.926     0.072     2.061     2.245
   100   1 H        0.926     0.074     2.040     2.233
   101   1 H        0.924     0.092     1.863     2.135
   102   1 H        0.924     0.075     2.029     2.227
   103   1 H        0.923     0.035     2.510     2.478
   104   1 H        0.926     0.046     2.367     2.406
   105   1 H        0.804     0.353     0.581     1.197
   106   1 H        0.926     0.047     2.356     2.401
   107   1 H        0.926     0.030     2.590     2.517
   108   1 H        0.926     0.060     2.198     2.318
   109   1 H        0.924     0.036     2.498     2.472
   110   1 H        0.924     0.053     2.284     2.363
   111   1 H        0.924     0.018     2.765     2.601
   112   1 H        0.924     0.051     2.309     2.376
   113   1 H        0.924     0.031     2.574     2.509
   114   1 H        0.924     0.025     2.653     2.547
   115   1 H        0.923     0.029     2.607     2.525
   116   1 H        0.924     0.032     2.555     2.500
   117   1 H        0.924     0.028     2.612     2.528
   118   1 H        0.924     0.031     2.566     2.505
   119   1 H        0.924     0.039     2.458     2.452
   120   1 H        0.804     0.379     0.525     1.138
   121   1 H        0.804     0.380     0.524     1.137
   122   1 H        0.923     0.001     3.035     2.724
   123   1 H        0.924     0.060     2.201     2.320
   124   1 H        0.923     0.030     2.590     2.517
   125   1 H        0.923     0.049     2.336     2.390
   126   1 H        0.924     0.008     2.916     2.671
   127   1 H        0.924     0.088     1.903     2.157
   128   1 H        0.924     0.057     2.235     2.338
   129   1 H        0.803     0.370     0.545     1.159
   130   1 H        0.804     0.378     0.526     1.139
   131   1 H        0.804     0.368     0.549     1.164
   132   1 H        0.801     0.315     0.677     1.293
   133   1 H        0.926     0.062     2.170     2.304
   134   1 H        0.926     0.067     2.122     2.278
   135   1 H        0.926     0.069     2.099     2.266
   136   1 H        0.926     0.057     2.229     2.334
   137   1 H        0.926     0.052     2.290     2.366
   138   1 H        0.926     0.038     2.471     2.458
   139   1 H        0.926     0.063     2.164     2.300

 Mol. C6AA /au·bohr⁶  :     193409.589152
 Mol. C8AA /au·bohr⁸  :    4438925.217503
 Mol. α(0) /au        :        663.585236


Wiberg/Mayer (AO) data.
largest (>0.10) Wiberg bond orders for each atom

 ---------------------------------------------------------------------------
     #   Z sym  total        # sym  WBO       # sym  WBO       # sym  WBO
 ---------------------------------------------------------------------------
     1   6 C    3.940 --     6 C    1.384     2 C    1.335    51 O    1.072
     2   6 C    3.977 --     3 C    1.395     1 C    1.335     7 C    0.992
     3   6 C    3.987 --     4 C    1.428     2 C    1.395    13 C    0.997
     4   6 C    3.983 --     3 C    1.428     5 C    1.361    74 H    0.964
     5   6 C    3.944 --     6 C    1.379     4 C    1.361    52 O    1.076
     6   6 C    3.974 --     1 C    1.384     5 C    1.379    75 H    0.960
     7   6 C    3.934 --     2 C    0.992     8 C    0.950    12 O    0.947
                            76 H    0.945
     8   6 C    3.946 --    15 O    0.990     9 C    0.965     7 C    0.950
                            77 H    0.947
     9   6 C    3.926 --    10 C    0.970     8 C    0.965    78 H    0.949
                            17 O    0.937
    10   6 C    3.933 --     9 C    0.970    16 O    0.960    11 C    0.958
                            79 H    0.953
    11   6 C    3.948 --    18 C    0.982    12 O    0.969    10 C    0.958
                            80 H    0.939
    12   8 O    2.057 --    11 C    0.969     7 C    0.947
    13   6 C    3.950 --     3 C    0.997    14 O    0.983    82 H    0.967
                            81 H    0.959
    14   8 O    1.929 --    13 C    0.983    83 H    0.857
    15   8 O    1.916 --     8 C    0.990    84 H    0.842
    16   8 O    2.086 --    20 C    0.982    10 C    0.960
    17   8 O    2.272 --    33 C    1.097     9 C    0.937    35 O    0.144
    18   6 C    3.960 --    19 O    1.011    11 C    0.982    85 H    0.967
                            86 H    0.964
    19   8 O    1.929 --    18 C    1.011    87 H    0.860
    20   6 C    3.924 --    16 O    0.982    21 O    0.954    25 C    0.953
                            88 H    0.942
    21   8 O    2.055 --    20 C    0.954    22 C    0.945
    22   6 C    3.931 --    29 C    0.980    23 C    0.967    89 H    0.954
                            21 O    0.945
    23   6 C    3.962 --    28 O    0.999    22 C    0.967    24 C    0.966
                            90 H    0.956
    24   6 C    3.962 --    26 O    1.011    23 C    0.966    25 C    0.958
                            91 H    0.947
    25   6 C    3.937 --    27 O    0.967    24 C    0.958    92 H    0.953
                            20 C    0.953
    26   8 O    1.948 --    24 C    1.011    93 H    0.847
    27   8 O    2.091 --    53 C    0.985    25 C    0.967
    28   8 O    1.929 --    23 C    0.999    94 H    0.836
    29   6 C    3.920 --    22 C    0.980    96 H    0.960    30 O    0.957
                            95 H    0.954
    30   8 O    2.285 --    31 C    1.073    29 C    0.957    32 O    0.143
    31   6 C    3.898 --    32 O    1.674    30 O    1.073    64 C    1.039
    32   8 O    2.022 --    31 C    1.674    30 O    0.143
    33   6 C    3.893 --    35 O    1.598    17 O    1.097    34 C    1.081
    34   6 C    3.968 --    36 C    1.693    33 C    1.081    97 H    0.961
                            38 C    0.108
    35   8 O    1.969 --    33 C    1.598    17 O    0.144
    36   6 C    3.969 --    34 C    1.693    37 C    1.167    98 H    0.954
    37   6 C    3.985 --    38 C    1.761    36 C    1.167    99 H    0.958
    38   6 C    3.967 --    37 C    1.761    39 C    1.049   100 H    0.958
                            34 C    0.108
    39   6 C    3.990 --    38 C    1.049    40 C    0.974   102 H    0.956
                           101 H    0.933
    40   6 C    3.953 --    41 C    1.009    42 O    0.979    39 C    0.974
                           103 H    0.945
    41   6 C    3.985 --    43 C    1.845    40 C    1.009   104 H    0.959
                            45 C    0.113
    42   8 O    1.911 --    40 C    0.979   105 H    0.860
    43   6 C    3.990 --    41 C    1.845    44 C    1.110   106 H    0.963
    44   6 C    3.989 --    45 C    1.838    43 C    1.110   107 H    0.965
    45   6 C    3.986 --    44 C    1.838    46 C    1.033   108 H    0.947
                            41 C    0.113
    46   6 C    3.997 --    45 C    1.033    47 C    1.001   109 H    0.969
                           110 H    0.949
    47   6 C    3.992 --    48 C    1.008    46 C    1.001   111 H    0.973
                           112 H    0.966
    48   6 C    3.997 --    47 C    1.008    49 C    1.007   114 H    0.977
                           113 H    0.977
    49   6 C    3.996 --    50 C    1.021    48 C    1.007   115 H    0.977
                           116 H    0.975
    50   6 C    3.996 --    49 C    1.021   118 H    0.987   119 H    0.984
                           117 H    0.980
    51   8 O    2.079 --     1 C    1.072   120 H    0.835
    52   8 O    2.071 --     5 C    1.076   121 H    0.838
    53   6 C    3.921 --    27 O    0.985    54 C    0.954    58 O    0.952
                           122 H    0.943
    54   6 C    3.957 --    62 O    0.999    55 C    0.969    53 C    0.954
                           123 H    0.953
    55   6 C    3.966 --    61 O    1.004    54 C    0.969    56 C    0.968
                           124 H    0.959
    56   6 C    3.967 --    60 O    1.004    55 C    0.968    57 C    0.966
                           125 H    0.953
    57   6 C    3.936 --    59 C    0.981    56 C    0.966    58 O    0.950
                           126 H    0.938
    58   8 O    2.062 --    53 C    0.952    57 C    0.950
    59   6 C    3.947 --    63 O    1.003    57 C    0.981   128 H    0.960
                           127 H    0.957
    60   8 O    1.942 --    56 C    1.004   129 H    0.837
    61   8 O    1.927 --    55 C    1.004   130 H    0.840
    62   8 O    1.919 --    54 C    0.999   131 H    0.847
    63   8 O    1.937 --    59 C    1.003   132 H    0.861
    64   6 C    3.980 --    65 C    1.471    69 C    1.220    31 C    1.039
                            67 C    0.101
    65   6 C    3.987 --    64 C    1.471    66 C    1.347   133 H    0.963
    66   6 C    3.989 --    67 C    1.536    65 C    1.347   134 H    0.966
    67   6 C    3.986 --    66 C    1.536    68 C    1.279   135 H    0.965
                            64 C    0.101
    68   6 C    3.990 --    67 C    1.279    70 C    1.274    69 C    1.258
    69   6 C    3.988 --    73 C    1.294    68 C    1.258    64 C    1.220
    70   6 C    3.989 --    71 C    1.557    68 C    1.274   136 H    0.966
                            73 C    0.119
    71   6 C    3.991 --    70 C    1.557    72 C    1.326   137 H    0.969
    72   6 C    3.990 --    73 C    1.546    71 C    1.326   138 H    0.967
    73   6 C    3.988 --    72 C    1.546    69 C    1.294   139 H    0.951
                            70 C    0.119
    74   1 H    0.995 --     4 C    0.964
    75   1 H    0.994 --     6 C    0.960
    76   1 H    0.996 --     7 C    0.945
    77   1 H    0.995 --     8 C    0.947
    78   1 H    0.998 --     9 C    0.949
    79   1 H    0.993 --    10 C    0.953
    80   1 H    0.998 --    11 C    0.939
    81   1 H    0.996 --    13 C    0.959
    82   1 H    0.998 --    13 C    0.967
    83   1 H    0.872 --    14 O    0.857
    84   1 H    0.888 --    15 O    0.842
    85   1 H    0.996 --    18 C    0.967
    86   1 H    0.998 --    18 C    0.964
    87   1 H    0.876 --    19 O    0.860
    88   1 H    1.000 --    20 C    0.942
    89   1 H    0.997 --    22 C    0.954
    90   1 H    0.996 --    23 C    0.956
    91   1 H    0.994 --    24 C    0.947
    92   1 H    0.993 --    25 C    0.953
    93   1 H    0.869 --    26 O    0.847
    94   1 H    0.881 --    28 O    0.836
    95   1 H    0.992 --    29 C    0.954
    96   1 H    0.989 --    29 C    0.960
    97   1 H    0.994 --    34 C    0.961
    98   1 H    0.993 --    36 C    0.954
    99   1 H    0.995 --    37 C    0.958
   100   1 H    0.994 --    38 C    0.958
   101   1 H    0.980 --    39 C    0.933
   102   1 H    0.993 --    39 C    0.956
   103   1 H    0.998 --    40 C    0.945
   104   1 H    0.998 --    41 C    0.959
   105   1 H    0.875 --    42 O    0.860
   106   1 H    0.997 --    43 C    0.963
   107   1 H    0.999 --    44 C    0.965
   108   1 H    0.996 --    45 C    0.947
   109   1 H    0.998 --    46 C    0.969
   110   1 H    0.997 --    46 C    0.949
   111   1 H    1.000 --    47 C    0.973
   112   1 H    0.997 --    47 C    0.966
   113   1 H    0.999 --    48 C    0.977
   114   1 H    0.999 --    48 C    0.977
   115   1 H    0.999 --    49 C    0.977
   116   1 H    0.999 --    49 C    0.975
   117   1 H    0.999 --    50 C    0.980
   118   1 H    0.999 --    50 C    0.987
   119   1 H    0.998 --    50 C    0.984
   120   1 H    0.856 --    51 O    0.835
   121   1 H    0.855 --    52 O    0.838
   122   1 H    1.000 --    53 C    0.943
   123   1 H    0.996 --    54 C    0.953
   124   1 H    0.999 --    55 C    0.959
   125   1 H    0.997 --    56 C    0.953
   126   1 H    1.000 --    57 C    0.938
   127   1 H    0.992 --    59 C    0.957
   128   1 H    0.996 --    59 C    0.960
   129   1 H    0.863 --    60 O    0.837
   130   1 H    0.856 --    61 O    0.840
   131   1 H    0.864 --    62 O    0.847
   132   1 H    0.900 --    63 O    0.861
   133   1 H    0.996 --    65 C    0.963
   134   1 H    0.995 --    66 C    0.966
   135   1 H    0.994 --    67 C    0.965
   136   1 H    0.996 --    70 C    0.966
   137   1 H    0.996 --    71 C    0.969
   138   1 H    0.998 --    72 C    0.967
   139   1 H    0.996 --    73 C    0.951
 ---------------------------------------------------------------------------

Topologies differ in total number of bonds
Writing topology from bond orders to xtbtopo.mol

molecular dipole:
                 x           y           z       tot (Debye)
 q only:       -0.759      -1.752       0.282
   full:       -1.147      -2.338       0.543       6.760
molecular quadrupole (traceless):
                xx          xy          yy          xz          yz          zz
 q only:       48.219     -47.378       0.975     -41.841       4.573     -49.194
  q+dip:       34.658     -48.690       6.918     -46.210       5.199     -41.577
   full:       35.096     -50.069       6.321     -50.505       5.432     -41.417


           -------------------------------------------------
          | TOTAL ENERGY             -230.428346857854 Eh   |
          | GRADIENT NORM               0.121916951134 Eh/α |
          | HOMO-LUMO GAP               1.334305825068 eV   |
           -------------------------------------------------

------------------------------------------------------------------------
 * finished run on 2026/06/19 at 18:52:29.916     
------------------------------------------------------------------------
 total:
 * wall-time:     0 d,  0 h,  0 min,  0.299 sec
 *  cpu-time:     0 d,  0 h,  0 min,  4.528 sec
 * ratio c/w:    15.137 speedup
 SCF:
 * wall-time:     0 d,  0 h,  0 min,  0.246 sec
 *  cpu-time:     0 d,  0 h,  0 min,  3.856 sec
 * ratio c/w:    15.708 speedup

normal termination of xtb
