      -----------------------------------------------------------      
     |                   =====================                   |     
     |                           x T B                           |     
     |                   =====================                   |     
     |                         S. Grimme                         |     
     |          Mulliken Center for Theoretical Chemistry        |     
     |                    University of Bonn                     |     
      -----------------------------------------------------------      

   * xtb version 6.7.1 (edcfbbe) compiled by 'albert@albert-system' on 2024-07-22

   xtb is free software: you can redistribute it and/or modify it under
   the terms of the GNU Lesser General Public License as published by
   the Free Software Foundation, either version 3 of the License, or
   (at your option) any later version.
   
   xtb is distributed in the hope that it will be useful,
   but WITHOUT ANY WARRANTY; without even the implied warranty of
   MERCHANTABILITY or FITNESS FOR A PARTICULAR PURPOSE.  See the
   GNU Lesser General Public License for more details.
   
   Cite this work as:
   * C. Bannwarth, E. Caldeweyher, S. Ehlert, A. Hansen, P. Pracht,
     J. Seibert, S. Spicher, S. Grimme, WIREs Comput. Mol. Sci., 2020, 11,
     e01493. DOI: 10.1002/wcms.1493
   
   for GFN2-xTB:
   * C. Bannwarth, S. Ehlert and S. Grimme., J. Chem. Theory Comput., 2019,
     15, 1652-1671. DOI: 10.1021/acs.jctc.8b01176
   for GFN1-xTB:
   * S. Grimme, C. Bannwarth, P. Shushkov, J. Chem. Theory Comput., 2017,
     13, 1989-2009. DOI: 10.1021/acs.jctc.7b00118
   for GFN0-xTB:
   * P. Pracht, E. Caldeweyher, S. Ehlert, S. Grimme, ChemRxiv, 2019, preprint.
     DOI: 10.26434/chemrxiv.8326202.v1
   for GFN-FF:
   * S. Spicher and S. Grimme, Angew. Chem. Int. Ed., 2020, 59, 15665-15673.
     DOI: 10.1002/anie.202004239
   
   for ALPB and GBSA implicit solvation:
   * S. Ehlert, M. Stahn, S. Spicher, S. Grimme, J. Chem. Theory Comput.,
     2021, 17, 4250-4261. DOI: 10.1021/acs.jctc.1c00471
   
   for ddCOSMO and CPCM-X implicit solvation:
   * M. Stahn, S. Ehlert, S. Grimme, J. Phys. Chem. A,
     2023, XX, XXXX-XXXX. DOI: 10.1021/acs.jpca.3c04382
   
   for DFT-D4:
   * E. Caldeweyher, C. Bannwarth and S. Grimme, J. Chem. Phys., 2017,
     147, 034112. DOI: 10.1063/1.4993215
   * E. Caldeweyher, S. Ehlert, A. Hansen, H. Neugebauer, S. Spicher,
     C. Bannwarth and S. Grimme, J. Chem. Phys., 2019, 150, 154122.
     DOI: 10.1063/1.5090222
   * E. Caldeweyher, J.-M. Mewes, S. Ehlert and S. Grimme, Phys. Chem. Chem. Phys.
     2020, 22, 8499-8512. DOI: 10.1039/D0CP00502A
   
   for sTDA-xTB:
   * S. Grimme and C. Bannwarth, J. Chem. Phys., 2016, 145, 054103.
     DOI: 10.1063/1.4959605
   
   in the mass-spec context:
   * V. Asgeirsson, C. Bauer and S. Grimme, Chem. Sci., 2017, 8, 4879.
     DOI: 10.1039/c7sc00601b
   * J. Koopman and S. Grimme, ACS Omega 2019, 4, 12, 15120-15133.
     DOI: 10.1021/acsomega.9b02011
   
   for metadynamics refer to:
   * S. Grimme, J. Chem. Theory Comput., 2019, 155, 2847-2862
     DOI: 10.1021/acs.jctc.9b00143
   
   for SPH calculations refer to:
   * S. Spicher and S. Grimme, J. Chem. Theory Comput., 2021, 17, 1701-1714
     DOI: 10.1021/acs.jctc.0c01306
   
   for ONIOM refer to:
   * C. Plett, A. Katbashev, S. Ehlert, S. Grimme, M. Bursch,
     Phys. Chem. Chem. Phys., 2023, 25, 17860-17868. DOI: 10.1039/D3CP02178E
   
   for DIPRO refer to:
   * J. Kohn, N. Gildemeister, S. Grimme, D. Fazzi, A. Hansen,
     J. Chem. Phys., 2023, just accepted.
   
   for PTB refer to:
   * S. Grimme, M. Mueller, A. Hansen, J. Chem. Phys., 2023, 158, 124111.
     DOI: 10.1063/5.0137838
   
   with help from (in alphabetical order)
   P. Atkinson, C. Bannwarth, F. Bohle, G. Brandenburg, E. Caldeweyher
   M. Checinski, S. Dohm, S. Ehlert, S. Ehrlich, I. Gerasimov, C. Hölzer
   A. Katbashev, J. Kohn, J. Koopman, C. Lavigne, S. Lehtola, F. März, M. Müller,
   F. Musil, H. Neugebauer, J. Pisarek, C. Plett, P. Pracht, F. Pultar,
   J. Seibert, P. Shushkov, S. Spicher, M. Stahn, M. Steiner, T. Strunk,
   J. Stückrath, T. Rose, and J. Unsleber
   
 * started run on 2026/06/19 at 18:52:30.863     
   ID    Z sym.   atoms
    1    6 C      1-11, 13, 18, 20, 22-25, 29, 31, 33, 34, 36-41, 43-50,
                  53-57, 59, 64-73
    2    8 O      12, 14-17, 19, 21, 26-28, 30, 32, 35, 42, 51, 52, 58, 60-63
    3    1 H      74-139

           -------------------------------------------------
          |                Calculation Setup                |
           -------------------------------------------------

          program call               : xtb PAPU-0077/conf05.xyz --gfn 2 --alpb water --chrg 0 --uhf 0 --namespace PAPU-0077/conf05_water
          hostname                   : cpu10
          calculation namespace      : PAPU-0077/conf05_water
          coordinate file            : PAPU-0077/conf05.xyz
          omp threads                :                    16


           -------------------------------------------------
          |                 G F N 2 - x T B                 |
           -------------------------------------------------

        Reference                      10.1021/acs.jctc.8b01176
      * Hamiltonian:
        H0-scaling (s, p, d)           1.850000    2.230000    2.230000
        zeta-weighting                 0.500000
      * Dispersion:
        s8                             2.700000
        a1                             0.520000
        a2                             5.000000
        s9                             5.000000
      * Repulsion:
        kExp                           1.500000    1.000000
        rExp                           1.000000
      * Coulomb:
        alpha                          2.000000
        third order                    shell-resolved
        anisotropic                    true
        a3                             3.000000
        a5                             4.000000
        cn-shift                       1.200000
        cn-exp                         4.000000
        max-rad                        5.000000

      * Solvation model:               ALPB
        Solvent                        water
        Parameter file                 internal GFN2-xTB/ALPB
        Dielectric constant                8.0200E+01
        Reference state                gsolv [1 M gas/solution]
        Free energy shift                  1.0808E-03 Eh       6.7819E-01 kcal/mol
        Temperature                        2.9815E+02 K
        Density                            1.0000E+00 kg/L
        Solvent mass                       1.8000E+01 g/mol
        Interaction kernel             P16
        Born radius scaling (c1)           1.4744E+00
        Born radii integrator          GBOBC
        Born offset                        0.0000E+00 a0       0.0000E+00 AA
        H-bond correction              true
        Ion screening                  false
        Surface tension                    1.0000E-05 Eh       1.5569E+01 dyn/cm
        Grid points                               230 per atom

          ...................................................
          :                      SETUP                      :
          :.................................................:
          :  # basis functions                 358          :
          :  # atomic orbitals                 358          :
          :  # shells                          212          :
          :  # electrons                       400          :
          :  max. iterations                   250          :
          :  Hamiltonian                  GFN2-xTB          :
          :  restarted?                      false          :
          :  GBSA solvation                   true          :
          :  PC potential                    false          :
          :  electronic temp.          300.0000000     K    :
          :  accuracy                    1.0000000          :
          :  -> integral cutoff          0.2500000E+02      :
          :  -> integral neglect         0.1000000E-07      :
          :  -> SCF convergence          0.1000000E-05 Eh   :
          :  -> wf. convergence          0.1000000E-03 e    :
          :  Broyden damping             0.4000000          :
          :  net charge                          0          :
          :  unpaired electrons                  0          :
          ...................................................

 iter      E             dE          RMSdq      gap      omega  full diag
   1   -232.6858470 -0.232686E+03  0.451E+00    2.14       0.0  T
   2   -232.9171694 -0.231322E+00  0.246E+00    1.80       1.0  T
   3   -232.8956665  0.215029E-01  0.106E+00    1.82       1.0  T
   4   -232.9397980 -0.441315E-01  0.322E-01    1.61       1.0  T
   5   -232.9461498 -0.635188E-02  0.131E-01    1.60       1.0  T
   6   -232.9467793 -0.629451E-03  0.664E-02    1.60       1.0  T
   7   -232.9469258 -0.146532E-03  0.303E-02    1.60       1.0  T
   8   -232.9469611 -0.352381E-04  0.136E-02    1.60       1.0  T
   9   -232.9469675 -0.647146E-05  0.631E-03    1.60       1.3  T
  10   -232.9469688 -0.131256E-05  0.376E-03    1.59       2.3  T
  11   -232.9469694 -0.584072E-06  0.189E-03    1.59       4.5  T
  12   -232.9469695 -0.105282E-06  0.859E-04    1.59       9.9  T
  13   -232.9469696 -0.367766E-07  0.446E-04    1.59      19.0  T

   *** convergence criteria satisfied after 13 iterations ***

         #    Occupation            Energy/Eh            Energy/eV
      -------------------------------------------------------------
         1        2.0000           -0.7731845             -21.0394
       ...           ...                  ...                  ...
       194        2.0000           -0.4046437             -11.0109
       195        2.0000           -0.4031977             -10.9716
       196        2.0000           -0.4018693             -10.9354
       197        2.0000           -0.3986296             -10.8473
       198        2.0000           -0.3889317             -10.5834
       199        2.0000           -0.3805063             -10.3541
       200        2.0000           -0.3722102             -10.1284 (HOMO)
       201                         -0.3137302              -8.5370 (LUMO)
       202                         -0.2963539              -8.0642
       203                         -0.2416415              -6.5754
       204                         -0.2382988              -6.4844
       205                         -0.2351619              -6.3991
       ...                                ...                  ...
       358                          0.7040497              19.1582
      -------------------------------------------------------------
                  HL-Gap            0.0584800 Eh            1.5913 eV
             Fermi-level           -0.3429702 Eh           -9.3327 eV

 SCC (total)                   0 d,  0 h,  0 min,  0.246 sec
 SCC setup                      ...        0 min,  0.003 sec (  1.418%)
 Dispersion                     ...        0 min,  0.004 sec (  1.456%)
 classical contributions        ...        0 min,  0.000 sec (  0.071%)
 integral evaluation            ...        0 min,  0.011 sec (  4.375%)
 iterations                     ...        0 min,  0.192 sec ( 78.100%)
 molecular gradient             ...        0 min,  0.034 sec ( 13.636%)
 printout                       ...        0 min,  0.002 sec (  0.929%)

         :::::::::::::::::::::::::::::::::::::::::::::::::::::
         ::                     SUMMARY                     ::
         :::::::::::::::::::::::::::::::::::::::::::::::::::::
         :: total energy            -230.433601477837 Eh    ::
         :: total w/o Gsasa/hb      -230.392118064892 Eh    ::
         :: gradient norm              0.123502949938 Eh/a0 ::
         :: HOMO-LUMO gap              1.591322822375 eV    ::
         ::.................................................::
         :: SCC energy              -232.935172833484 Eh    ::
         :: -> isotropic ES            0.563682781657 Eh    ::
         :: -> anisotropic ES         -0.030756480316 Eh    ::
         :: -> anisotropic XC          0.019419089029 Eh    ::
         :: -> dispersion             -0.190605708990 Eh    ::
         :: -> Gsolv                  -0.102179774447 Eh    ::
         ::    -> Gelec               -0.060696361502 Eh    ::
         ::    -> Gsasa                0.007291944717 Eh    ::
         ::    -> Ghb                 -0.049856117361 Eh    ::
         ::    -> Gshift               0.001080759698 Eh    ::
         :: repulsion energy           2.501571355647 Eh    ::
         :: add. restraining           0.000000000000 Eh    ::
         :: total charge               0.000000000000 e     ::
         :::::::::::::::::::::::::::::::::::::::::::::::::::::

           -------------------------------------------------
          |                Property Printout                |
           -------------------------------------------------

    * Orbital Energies and Occupations

         #    Occupation            Energy/Eh            Energy/eV
      -------------------------------------------------------------
         1        2.0000           -0.7731845             -21.0394
       ...           ...                  ...                  ...
       188        2.0000           -0.4142944             -11.2735
       189        2.0000           -0.4120413             -11.2122
       190        2.0000           -0.4096746             -11.1478
       191        2.0000           -0.4093339             -11.1385
       192        2.0000           -0.4086042             -11.1187
       193        2.0000           -0.4065821             -11.0637
       194        2.0000           -0.4046437             -11.0109
       195        2.0000           -0.4031977             -10.9716
       196        2.0000           -0.4018693             -10.9354
       197        2.0000           -0.3986296             -10.8473
       198        2.0000           -0.3889317             -10.5834
       199        2.0000           -0.3805063             -10.3541
       200        2.0000           -0.3722102             -10.1284 (HOMO)
       201                         -0.3137302              -8.5370 (LUMO)
       202                         -0.2963539              -8.0642
       203                         -0.2416415              -6.5754
       204                         -0.2382988              -6.4844
       205                         -0.2351619              -6.3991
       206                         -0.2302272              -6.2648
       207                         -0.2287115              -6.2236
       208                         -0.2217822              -6.0350
       209                         -0.1838776              -5.0036
       210                         -0.1618572              -4.4044
       211                         -0.1436370              -3.9086
       ...                                ...                  ...
       358                          0.7040497              19.1582
      -------------------------------------------------------------
                  HL-Gap            0.0584800 Eh            1.5913 eV
             Fermi-level           -0.3429702 Eh           -9.3327 eV

     #   Z          covCN         q      C6AA      α(0)
     1   6 C        2.841     0.143    24.883     8.175
     2   6 C        2.975    -0.026    28.650     8.780
     3   6 C        2.964    -0.002    28.063     8.689
     4   6 C        2.929    -0.079    29.966     8.977
     5   6 C        2.837     0.144    24.860     8.171
     6   6 C        2.920    -0.112    30.837     9.106
     7   6 C        3.746     0.104    18.938     6.207
     8   6 C        3.720     0.091    19.173     6.254
     9   6 C        3.761     0.107    18.866     6.192
    10   6 C        3.748     0.102    18.957     6.210
    11   6 C        3.744     0.090    19.152     6.243
    12   8 O        1.695    -0.349    19.866     6.018
    13   6 C        3.681     0.069    19.619     6.343
    14   8 O        1.653    -0.509    23.090     6.487
    15   8 O        1.651    -0.501    22.906     6.461
    16   8 O        1.699    -0.334    19.604     5.978
    17   8 O        1.702    -0.294    18.887     5.868
    18   6 C        3.675     0.082    19.441     6.318
    19   8 O        1.654    -0.483    22.535     6.408
    20   6 C        3.636     0.250    17.066     5.944
    21   8 O        1.696    -0.370    20.257     6.077
    22   6 C        3.739     0.099    19.020     6.223
    23   6 C        3.723     0.086    19.260     6.267
    24   6 C        3.723     0.090    19.200     6.257
    25   6 C        3.749     0.092    19.119     6.236
    26   8 O        1.654    -0.475    22.363     6.384
    27   8 O        1.699    -0.322    19.384     5.944
    28   8 O        1.653    -0.482    22.501     6.403
    29   6 C        3.730     0.062    19.635     6.325
    30   8 O        1.703    -0.274    18.547     5.815
    31   6 C        2.752     0.350    21.051     7.513
    32   8 O        0.857    -0.461    22.945     6.422
    33   6 C        2.733     0.355    20.980     7.499
    34   6 C        2.895    -0.089    30.227     9.014
    35   8 O        0.857    -0.496    23.707     6.528
    36   6 C        2.903     0.001    27.997     8.676
    37   6 C        2.898    -0.051    29.254     8.868
    38   6 C        2.898    -0.000    28.040     8.682
    39   6 C        3.806    -0.076    21.951     6.670
    40   6 C        3.728     0.118    18.749     6.182
    41   6 C        2.894    -0.068    29.703     8.936
    42   8 O        1.652    -0.513    23.182     6.500
    43   6 C        2.898    -0.037    28.914     8.816
    44   6 C        2.898    -0.049    29.223     8.863
    45   6 C        2.894    -0.038    28.932     8.819
    46   6 C        3.805    -0.063    21.712     6.634
    47   6 C        3.800    -0.056    21.576     6.613
    48   6 C        3.801    -0.070    21.840     6.654
    49   6 C        3.799    -0.049    21.459     6.596
    50   6 C        3.751    -0.113    22.718     6.797
    51   8 O        1.657    -0.455    21.943     6.324
    52   8 O        1.657    -0.453    21.899     6.317
    53   6 C        3.646     0.240    17.173     5.955
    54   6 C        3.721     0.089    19.205     6.259
    55   6 C        3.723     0.100    19.040     6.231
    56   6 C        3.722     0.091    19.179     6.254
    57   6 C        3.746     0.102    18.968     6.212
    58   8 O        1.696    -0.361    20.090     6.051
    59   6 C        3.674     0.074    19.559     6.337
    60   8 O        1.653    -0.475    22.372     6.385
    61   8 O        1.654    -0.487    22.617     6.420
    62   8 O        1.654    -0.495    22.779     6.443
    63   8 O        1.652    -0.480    22.466     6.398
    64   6 C        2.965    -0.033    28.813     8.804
    65   6 C        2.927    -0.025    28.624     8.774
    66   6 C        2.915    -0.035    28.860     8.809
    67   6 C        2.922    -0.027    28.676     8.782
    68   6 C        2.990     0.017    27.629     8.622
    69   6 C        2.987     0.021    27.537     8.608
    70   6 C        2.922    -0.039    28.966     8.826
    71   6 C        2.919    -0.031    28.779     8.797
    72   6 C        2.919    -0.025    28.636     8.775
    73   6 C        2.922    -0.038    28.954     8.824
    74   1 H        0.926     0.067     2.122     2.278
    75   1 H        0.926     0.068     2.102     2.267
    76   1 H        0.923     0.055     2.262     2.352
    77   1 H        0.923     0.067     2.115     2.275
    78   1 H        0.924     0.038     2.472     2.459
    79   1 H        0.923     0.079     1.989     2.206
    80   1 H        0.923     0.041     2.432     2.439
    81   1 H        0.924     0.065     2.146     2.291
    82   1 H        0.924     0.037     2.486     2.466
    83   1 H        0.804     0.357     0.571     1.187
    84   1 H        0.803     0.336     0.622     1.239
    85   1 H        0.924     0.040     2.450     2.448
    86   1 H        0.924     0.065     2.146     2.291
    87   1 H        0.803     0.351     0.586     1.202
    88   1 H        0.923     0.001     3.038     2.726
    89   1 H        0.923     0.048     2.342     2.394
    90   1 H        0.923     0.056     2.244     2.343
    91   1 H        0.924     0.083     1.946     2.181
    92   1 H        0.924     0.084     1.938     2.177
    93   1 H        0.803     0.363     0.560     1.175
    94   1 H        0.803     0.343     0.604     1.221
    95   1 H        0.924     0.087     1.909     2.161
    96   1 H        0.924     0.099     1.791     2.093
    97   1 H        0.926     0.077     2.013     2.219
    98   1 H        0.926     0.079     1.984     2.203
    99   1 H        0.926     0.072     2.067     2.249
   100   1 H        0.926     0.079     1.985     2.203
   101   1 H        0.924     0.101     1.773     2.082
   102   1 H        0.924     0.081     1.965     2.192
   103   1 H        0.923     0.029     2.605     2.524
   104   1 H        0.926     0.045     2.389     2.417
   105   1 H        0.804     0.350     0.589     1.206
   106   1 H        0.926     0.042     2.420     2.433
   107   1 H        0.926     0.042     2.427     2.436
   108   1 H        0.926     0.036     2.505     2.475
   109   1 H        0.924     0.044     2.395     2.420
   110   1 H        0.924     0.041     2.436     2.441
   111   1 H        0.924     0.032     2.561     2.503
   112   1 H        0.924     0.026     2.646     2.544
   113   1 H        0.924     0.049     2.337     2.391
   114   1 H        0.924     0.033     2.548     2.496
   115   1 H        0.924     0.025     2.653     2.547
   116   1 H        0.924     0.014     2.831     2.631
   117   1 H        0.924     0.036     2.509     2.477
   118   1 H        0.924     0.031     2.569     2.506
   119   1 H        0.924     0.046     2.375     2.410
   120   1 H        0.804     0.379     0.524     1.137
   121   1 H        0.804     0.379     0.524     1.137
   122   1 H        0.923     0.001     3.039     2.726
   123   1 H        0.924     0.061     2.190     2.314
   124   1 H        0.923     0.032     2.562     2.503
   125   1 H        0.923     0.047     2.353     2.399
   126   1 H        0.924     0.011     2.879     2.653
   127   1 H        0.924     0.086     1.915     2.164
   128   1 H        0.924     0.055     2.257     2.349
   129   1 H        0.803     0.366     0.553     1.168
   130   1 H        0.804     0.378     0.526     1.140
   131   1 H        0.804     0.368     0.547     1.162
   132   1 H        0.801     0.318     0.671     1.287
   133   1 H        0.926     0.063     2.162     2.300
   134   1 H        0.926     0.067     2.113     2.273
   135   1 H        0.926     0.069     2.099     2.266
   136   1 H        0.926     0.057     2.229     2.335
   137   1 H        0.926     0.052     2.292     2.367
   138   1 H        0.926     0.038     2.473     2.459
   139   1 H        0.926     0.061     2.185     2.312

 Mol. C6AA /au·bohr⁶  :     193408.046165
 Mol. C8AA /au·bohr⁸  :    4438802.708428
 Mol. α(0) /au        :        663.578712


Wiberg/Mayer (AO) data.
largest (>0.10) Wiberg bond orders for each atom

 ---------------------------------------------------------------------------
     #   Z sym  total        # sym  WBO       # sym  WBO       # sym  WBO
 ---------------------------------------------------------------------------
     1   6 C    3.940 --     6 C    1.383     2 C    1.336    51 O    1.072
     2   6 C    3.978 --     3 C    1.394     1 C    1.336     7 C    0.992
     3   6 C    3.987 --     4 C    1.428     2 C    1.394    13 C    0.997
     4   6 C    3.983 --     3 C    1.428     5 C    1.362    74 H    0.964
     5   6 C    3.944 --     6 C    1.379     4 C    1.362    52 O    1.075
     6   6 C    3.974 --     1 C    1.383     5 C    1.379    75 H    0.960
     7   6 C    3.935 --     2 C    0.992    12 O    0.949     8 C    0.949
                            76 H    0.946
     8   6 C    3.946 --    15 O    0.990     9 C    0.965     7 C    0.949
                            77 H    0.946
     9   6 C    3.927 --    10 C    0.970     8 C    0.965    78 H    0.950
                            17 O    0.938
    10   6 C    3.935 --     9 C    0.970    16 O    0.961    11 C    0.959
                            79 H    0.951
    11   6 C    3.948 --    18 C    0.979    12 O    0.969    10 C    0.959
                            80 H    0.939
    12   8 O    2.060 --    11 C    0.969     7 C    0.949
    13   6 C    3.948 --     3 C    0.997    14 O    0.983    82 H    0.968
                            81 H    0.956
    14   8 O    1.930 --    13 C    0.983    83 H    0.858
    15   8 O    1.915 --     8 C    0.990    84 H    0.840
    16   8 O    2.083 --    20 C    0.981    10 C    0.961
    17   8 O    2.272 --    33 C    1.095     9 C    0.938    35 O    0.144
    18   6 C    3.959 --    19 O    1.011    11 C    0.979    85 H    0.967
                            86 H    0.965
    19   8 O    1.931 --    18 C    1.011    87 H    0.860
    20   6 C    3.924 --    16 O    0.981    25 C    0.954    21 O    0.953
                            88 H    0.942
    21   8 O    2.055 --    20 C    0.953    22 C    0.946
    22   6 C    3.931 --    29 C    0.980    23 C    0.967    89 H    0.953
                            21 O    0.946
    23   6 C    3.962 --    28 O    0.998    24 C    0.967    22 C    0.967
                            90 H    0.956
    24   6 C    3.958 --    26 O    1.009    23 C    0.967    25 C    0.958
                            91 H    0.940
    25   6 C    3.937 --    27 O    0.967    24 C    0.958    20 C    0.954
                            92 H    0.953
    26   8 O    1.945 --    24 C    1.009    93 H    0.846
    27   8 O    2.087 --    53 C    0.983    25 C    0.967
    28   8 O    1.929 --    23 C    0.998    94 H    0.839
    29   6 C    3.921 --    22 C    0.980    96 H    0.960    30 O    0.957
                            95 H    0.954
    30   8 O    2.284 --    31 C    1.073    29 C    0.957    32 O    0.143
    31   6 C    3.899 --    32 O    1.673    30 O    1.073    64 C    1.040
    32   8 O    2.020 --    31 C    1.673    30 O    0.143
    33   6 C    3.893 --    35 O    1.600    17 O    1.095    34 C    1.084
    34   6 C    3.969 --    36 C    1.688    33 C    1.084    97 H    0.961
                            38 C    0.109
    35   8 O    1.971 --    33 C    1.600    17 O    0.144
    36   6 C    3.970 --    34 C    1.688    37 C    1.173    98 H    0.955
    37   6 C    3.984 --    38 C    1.753    36 C    1.173    99 H    0.958
    38   6 C    3.965 --    37 C    1.753    39 C    1.052   100 H    0.956
                            34 C    0.109
    39   6 C    3.984 --    38 C    1.052    40 C    0.973   102 H    0.951
                           101 H    0.929
    40   6 C    3.954 --    41 C    1.004    42 O    0.977    39 C    0.973
                           103 H    0.960
    41   6 C    3.977 --    43 C    1.835    40 C    1.004   104 H    0.965
                            45 C    0.128
    42   8 O    1.911 --    40 C    0.977   105 H    0.863
    43   6 C    3.991 --    41 C    1.835    44 C    1.123   106 H    0.960
    44   6 C    3.990 --    45 C    1.829    43 C    1.123   107 H    0.962
    45   6 C    3.982 --    44 C    1.829    46 C    1.032   108 H    0.966
                            41 C    0.128
    46   6 C    3.995 --    45 C    1.032    47 C    0.986   110 H    0.973
                           109 H    0.964
    47   6 C    3.989 --    48 C    1.009    46 C    0.986   111 H    0.976
                           112 H    0.976
    48   6 C    3.994 --    47 C    1.009    49 C    1.006   114 H    0.976
                           113 H    0.964
    49   6 C    3.997 --    50 C    1.021    48 C    1.006   115 H    0.978
                           116 H    0.974
    50   6 C    3.995 --    49 C    1.021   118 H    0.987   119 H    0.979
                           117 H    0.978
    51   8 O    2.076 --     1 C    1.072   120 H    0.836
    52   8 O    2.070 --     5 C    1.075   121 H    0.838
    53   6 C    3.921 --    27 O    0.983    54 C    0.954    58 O    0.953
                           122 H    0.945
    54   6 C    3.957 --    62 O    0.999    55 C    0.969    53 C    0.954
                           123 H    0.954
    55   6 C    3.966 --    61 O    1.004    54 C    0.969    56 C    0.968
                           124 H    0.958
    56   6 C    3.967 --    60 O    1.006    55 C    0.968    57 C    0.966
                           125 H    0.952
    57   6 C    3.936 --    59 C    0.981    56 C    0.966    58 O    0.948
                           126 H    0.940
    58   8 O    2.066 --    53 C    0.953    57 C    0.948
    59   6 C    3.948 --    63 O    1.003    57 C    0.981   128 H    0.962
                           127 H    0.958
    60   8 O    1.935 --    56 C    1.006   129 H    0.841
    61   8 O    1.927 --    55 C    1.004   130 H    0.840
    62   8 O    1.918 --    54 C    0.999   131 H    0.847
    63   8 O    1.937 --    59 C    1.003   132 H    0.859
    64   6 C    3.980 --    65 C    1.470    69 C    1.220    31 C    1.040
                            67 C    0.101
    65   6 C    3.987 --    64 C    1.470    66 C    1.347   133 H    0.963
    66   6 C    3.989 --    67 C    1.536    65 C    1.347   134 H    0.966
    67   6 C    3.986 --    66 C    1.536    68 C    1.279   135 H    0.965
                            64 C    0.101
    68   6 C    3.990 --    67 C    1.279    70 C    1.274    69 C    1.258
    69   6 C    3.988 --    73 C    1.294    68 C    1.258    64 C    1.220
    70   6 C    3.989 --    71 C    1.558    68 C    1.274   136 H    0.966
                            73 C    0.118
    71   6 C    3.991 --    70 C    1.558    72 C    1.326   137 H    0.969
    72   6 C    3.990 --    73 C    1.545    71 C    1.326   138 H    0.967
    73   6 C    3.988 --    72 C    1.545    69 C    1.294   139 H    0.952
                            70 C    0.118
    74   1 H    0.995 --     4 C    0.964
    75   1 H    0.995 --     6 C    0.960
    76   1 H    0.997 --     7 C    0.946
    77   1 H    0.995 --     8 C    0.946
    78   1 H    0.998 --     9 C    0.950
    79   1 H    0.993 --    10 C    0.951
    80   1 H    0.998 --    11 C    0.939
    81   1 H    0.996 --    13 C    0.956
    82   1 H    0.998 --    13 C    0.968
    83   1 H    0.872 --    14 O    0.858
    84   1 H    0.887 --    15 O    0.840
    85   1 H    0.998 --    18 C    0.967
    86   1 H    0.995 --    18 C    0.965
    87   1 H    0.877 --    19 O    0.860
    88   1 H    1.000 --    20 C    0.942
    89   1 H    0.997 --    22 C    0.953
    90   1 H    0.997 --    23 C    0.956
    91   1 H    0.993 --    24 C    0.940
    92   1 H    0.992 --    25 C    0.953
    93   1 H    0.868 --    26 O    0.846
    94   1 H    0.882 --    28 O    0.839
    95   1 H    0.992 --    29 C    0.954
    96   1 H    0.989 --    29 C    0.960
    97   1 H    0.994 --    34 C    0.961
    98   1 H    0.994 --    36 C    0.955
    99   1 H    0.995 --    37 C    0.958
   100   1 H    0.994 --    38 C    0.956
   101   1 H    0.978 --    39 C    0.929
   102   1 H    0.991 --    39 C    0.951
   103   1 H    0.997 --    40 C    0.960
   104   1 H    0.998 --    41 C    0.965
   105   1 H    0.878 --    42 O    0.863
   106   1 H    0.998 --    43 C    0.960
   107   1 H    0.998 --    44 C    0.962
   108   1 H    0.999 --    45 C    0.966
   109   1 H    0.994 --    46 C    0.964
   110   1 H    0.998 --    46 C    0.973
   111   1 H    0.998 --    47 C    0.976
   112   1 H    0.999 --    47 C    0.976
   113   1 H    0.998 --    48 C    0.964
   114   1 H    0.999 --    48 C    0.976
   115   1 H    0.999 --    49 C    0.978
   116   1 H    1.000 --    49 C    0.974
   117   1 H    0.999 --    50 C    0.978
   118   1 H    0.999 --    50 C    0.987
   119   1 H    0.998 --    50 C    0.979
   120   1 H    0.855 --    51 O    0.836
   121   1 H    0.855 --    52 O    0.838
   122   1 H    1.000 --    53 C    0.945
   123   1 H    0.996 --    54 C    0.954
   124   1 H    0.999 --    55 C    0.958
   125   1 H    0.997 --    56 C    0.952
   126   1 H    1.000 --    57 C    0.940
   127   1 H    0.992 --    59 C    0.958
   128   1 H    0.996 --    59 C    0.962
   129   1 H    0.866 --    60 O    0.841
   130   1 H    0.856 --    61 O    0.840
   131   1 H    0.864 --    62 O    0.847
   132   1 H    0.899 --    63 O    0.859
   133   1 H    0.996 --    65 C    0.963
   134   1 H    0.995 --    66 C    0.966
   135   1 H    0.994 --    67 C    0.965
   136   1 H    0.996 --    70 C    0.966
   137   1 H    0.996 --    71 C    0.969
   138   1 H    0.998 --    72 C    0.967
   139   1 H    0.996 --    73 C    0.952
 ---------------------------------------------------------------------------

Topologies differ in total number of bonds
Writing topology from bond orders to xtbtopo.mol

molecular dipole:
                 x           y           z       tot (Debye)
 q only:        1.006      -0.941       0.435
   full:        1.069      -1.306       0.753       4.698
molecular quadrupole (traceless):
                xx          xy          yy          xz          yz          zz
 q only:       57.570     -40.376     -21.944     -33.356       0.698     -35.626
  q+dip:       46.470     -38.753     -20.093     -38.063       0.905     -26.377
   full:       46.287     -41.142     -21.165     -40.071       0.755     -25.122


           -------------------------------------------------
          | TOTAL ENERGY             -230.433601477837 Eh   |
          | GRADIENT NORM               0.123502949938 Eh/α |
          | HOMO-LUMO GAP               1.591322822375 eV   |
           -------------------------------------------------

------------------------------------------------------------------------
 * finished run on 2026/06/19 at 18:52:31.161     
------------------------------------------------------------------------
 total:
 * wall-time:     0 d,  0 h,  0 min,  0.297 sec
 *  cpu-time:     0 d,  0 h,  0 min,  4.501 sec
 * ratio c/w:    15.133 speedup
 SCF:
 * wall-time:     0 d,  0 h,  0 min,  0.247 sec
 *  cpu-time:     0 d,  0 h,  0 min,  3.870 sec
 * ratio c/w:    15.660 speedup

normal termination of xtb
