      -----------------------------------------------------------      
     |                   =====================                   |     
     |                           x T B                           |     
     |                   =====================                   |     
     |                         S. Grimme                         |     
     |          Mulliken Center for Theoretical Chemistry        |     
     |                    University of Bonn                     |     
      -----------------------------------------------------------      

   * xtb version 6.7.1 (edcfbbe) compiled by 'albert@albert-system' on 2024-07-22

   xtb is free software: you can redistribute it and/or modify it under
   the terms of the GNU Lesser General Public License as published by
   the Free Software Foundation, either version 3 of the License, or
   (at your option) any later version.
   
   xtb is distributed in the hope that it will be useful,
   but WITHOUT ANY WARRANTY; without even the implied warranty of
   MERCHANTABILITY or FITNESS FOR A PARTICULAR PURPOSE.  See the
   GNU Lesser General Public License for more details.
   
   Cite this work as:
   * C. Bannwarth, E. Caldeweyher, S. Ehlert, A. Hansen, P. Pracht,
     J. Seibert, S. Spicher, S. Grimme, WIREs Comput. Mol. Sci., 2020, 11,
     e01493. DOI: 10.1002/wcms.1493
   
   for GFN2-xTB:
   * C. Bannwarth, S. Ehlert and S. Grimme., J. Chem. Theory Comput., 2019,
     15, 1652-1671. DOI: 10.1021/acs.jctc.8b01176
   for GFN1-xTB:
   * S. Grimme, C. Bannwarth, P. Shushkov, J. Chem. Theory Comput., 2017,
     13, 1989-2009. DOI: 10.1021/acs.jctc.7b00118
   for GFN0-xTB:
   * P. Pracht, E. Caldeweyher, S. Ehlert, S. Grimme, ChemRxiv, 2019, preprint.
     DOI: 10.26434/chemrxiv.8326202.v1
   for GFN-FF:
   * S. Spicher and S. Grimme, Angew. Chem. Int. Ed., 2020, 59, 15665-15673.
     DOI: 10.1002/anie.202004239
   
   for ALPB and GBSA implicit solvation:
   * S. Ehlert, M. Stahn, S. Spicher, S. Grimme, J. Chem. Theory Comput.,
     2021, 17, 4250-4261. DOI: 10.1021/acs.jctc.1c00471
   
   for ddCOSMO and CPCM-X implicit solvation:
   * M. Stahn, S. Ehlert, S. Grimme, J. Phys. Chem. A,
     2023, XX, XXXX-XXXX. DOI: 10.1021/acs.jpca.3c04382
   
   for DFT-D4:
   * E. Caldeweyher, C. Bannwarth and S. Grimme, J. Chem. Phys., 2017,
     147, 034112. DOI: 10.1063/1.4993215
   * E. Caldeweyher, S. Ehlert, A. Hansen, H. Neugebauer, S. Spicher,
     C. Bannwarth and S. Grimme, J. Chem. Phys., 2019, 150, 154122.
     DOI: 10.1063/1.5090222
   * E. Caldeweyher, J.-M. Mewes, S. Ehlert and S. Grimme, Phys. Chem. Chem. Phys.
     2020, 22, 8499-8512. DOI: 10.1039/D0CP00502A
   
   for sTDA-xTB:
   * S. Grimme and C. Bannwarth, J. Chem. Phys., 2016, 145, 054103.
     DOI: 10.1063/1.4959605
   
   in the mass-spec context:
   * V. Asgeirsson, C. Bauer and S. Grimme, Chem. Sci., 2017, 8, 4879.
     DOI: 10.1039/c7sc00601b
   * J. Koopman and S. Grimme, ACS Omega 2019, 4, 12, 15120-15133.
     DOI: 10.1021/acsomega.9b02011
   
   for metadynamics refer to:
   * S. Grimme, J. Chem. Theory Comput., 2019, 155, 2847-2862
     DOI: 10.1021/acs.jctc.9b00143
   
   for SPH calculations refer to:
   * S. Spicher and S. Grimme, J. Chem. Theory Comput., 2021, 17, 1701-1714
     DOI: 10.1021/acs.jctc.0c01306
   
   for ONIOM refer to:
   * C. Plett, A. Katbashev, S. Ehlert, S. Grimme, M. Bursch,
     Phys. Chem. Chem. Phys., 2023, 25, 17860-17868. DOI: 10.1039/D3CP02178E
   
   for DIPRO refer to:
   * J. Kohn, N. Gildemeister, S. Grimme, D. Fazzi, A. Hansen,
     J. Chem. Phys., 2023, just accepted.
   
   for PTB refer to:
   * S. Grimme, M. Mueller, A. Hansen, J. Chem. Phys., 2023, 158, 124111.
     DOI: 10.1063/5.0137838
   
   with help from (in alphabetical order)
   P. Atkinson, C. Bannwarth, F. Bohle, G. Brandenburg, E. Caldeweyher
   M. Checinski, S. Dohm, S. Ehlert, S. Ehrlich, I. Gerasimov, C. Hölzer
   A. Katbashev, J. Kohn, J. Koopman, C. Lavigne, S. Lehtola, F. März, M. Müller,
   F. Musil, H. Neugebauer, J. Pisarek, C. Plett, P. Pracht, F. Pultar,
   J. Seibert, P. Shushkov, S. Spicher, M. Stahn, M. Steiner, T. Strunk,
   J. Stückrath, T. Rose, and J. Unsleber
   
 * started run on 2026/06/19 at 18:52:29.930     
   ID    Z sym.   atoms
    1    6 C      1-11, 13, 18, 20, 22-25, 29, 31, 33, 34, 36-41, 43-50,
                  53-57, 59, 64-73
    2    8 O      12, 14-17, 19, 21, 26-28, 30, 32, 35, 42, 51, 52, 58, 60-63
    3    1 H      74-139

           -------------------------------------------------
          |                Calculation Setup                |
           -------------------------------------------------

          program call               : xtb PAPU-0077/conf03.xyz --gfn 2 --alpb octanol --chrg 0 --uhf 0 --namespace PAPU-0077/conf03_octanol
          hostname                   : cpu10
          calculation namespace      : PAPU-0077/conf03_octanol
          coordinate file            : PAPU-0077/conf03.xyz
          omp threads                :                    16


           -------------------------------------------------
          |                 G F N 2 - x T B                 |
           -------------------------------------------------

        Reference                      10.1021/acs.jctc.8b01176
      * Hamiltonian:
        H0-scaling (s, p, d)           1.850000    2.230000    2.230000
        zeta-weighting                 0.500000
      * Dispersion:
        s8                             2.700000
        a1                             0.520000
        a2                             5.000000
        s9                             5.000000
      * Repulsion:
        kExp                           1.500000    1.000000
        rExp                           1.000000
      * Coulomb:
        alpha                          2.000000
        third order                    shell-resolved
        anisotropic                    true
        a3                             3.000000
        a5                             4.000000
        cn-shift                       1.200000
        cn-exp                         4.000000
        max-rad                        5.000000

      * Solvation model:               ALPB
        Solvent                        octanol
        Parameter file                 internal GFN2-xTB/ALPB
        Dielectric constant                9.8629E+00
        Reference state                gsolv [1 M gas/solution]
        Free energy shift                  2.3397E-03 Eh       1.4682E+00 kcal/mol
        Temperature                        2.9815E+02 K
        Density                            8.3000E-01 kg/L
        Solvent mass                       1.3023E+02 g/mol
        Interaction kernel             P16
        Born radius scaling (c1)           1.5898E+00
        Born radii integrator          GBOBC
        Born offset                        0.0000E+00 a0       0.0000E+00 AA
        H-bond correction              true
        Ion screening                  false
        Surface tension                    1.0000E-05 Eh       1.5569E+01 dyn/cm
        Grid points                               230 per atom

          ...................................................
          :                      SETUP                      :
          :.................................................:
          :  # basis functions                 358          :
          :  # atomic orbitals                 358          :
          :  # shells                          212          :
          :  # electrons                       400          :
          :  max. iterations                   250          :
          :  Hamiltonian                  GFN2-xTB          :
          :  restarted?                      false          :
          :  GBSA solvation                   true          :
          :  PC potential                    false          :
          :  electronic temp.          300.0000000     K    :
          :  accuracy                    1.0000000          :
          :  -> integral cutoff          0.2500000E+02      :
          :  -> integral neglect         0.1000000E-07      :
          :  -> SCF convergence          0.1000000E-05 Eh   :
          :  -> wf. convergence          0.1000000E-03 e    :
          :  Broyden damping             0.4000000          :
          :  net charge                          0          :
          :  unpaired electrons                  0          :
          ...................................................

 iter      E             dE          RMSdq      gap      omega  full diag
   1   -232.6982967 -0.232698E+03  0.451E+00    2.19       0.0  T
   2   -232.9281142 -0.229817E+00  0.249E+00    1.47       1.0  T
   3   -232.9025000  0.256142E-01  0.109E+00    1.43       1.0  T
   4   -232.9519488 -0.494488E-01  0.315E-01    1.21       1.0  T
   5   -232.9590693 -0.712055E-02  0.125E-01    1.18       1.0  T
   6   -232.9598325 -0.763188E-03  0.618E-02    1.20       1.0  T
   7   -232.9599775 -0.144943E-03  0.271E-02    1.21       1.0  T
   8   -232.9600085 -0.310070E-04  0.113E-02    1.21       1.0  T
   9   -232.9600132 -0.466842E-05  0.483E-03    1.21       1.8  T
  10   -232.9600144 -0.119657E-05  0.217E-03    1.20       3.9  T
  11   -232.9600145 -0.153402E-06  0.108E-03    1.20       7.9  T
  12   -232.9600145 -0.190570E-07  0.463E-04    1.20      18.3  T
  13   -232.9600145 -0.102346E-07  0.220E-04    1.20      38.5  T

   *** convergence criteria satisfied after 13 iterations ***

         #    Occupation            Energy/Eh            Energy/eV
      -------------------------------------------------------------
         1        2.0000           -0.7785168             -21.1845
       ...           ...                  ...                  ...
       194        2.0000           -0.4083057             -11.1106
       195        2.0000           -0.4055432             -11.0354
       196        2.0000           -0.4044645             -11.0060
       197        2.0000           -0.4020510             -10.9404
       198        2.0000           -0.3942540             -10.7282
       199        2.0000           -0.3875010             -10.5444
       200        2.0000           -0.3642599              -9.9120 (HOMO)
       201                         -0.3200265              -8.7084 (LUMO)
       202                         -0.3009443              -8.1891
       203                         -0.2431873              -6.6175
       204                         -0.2407100              -6.5501
       205                         -0.2376933              -6.4680
       ...                                ...                  ...
       358                          0.6988674              19.0172
      -------------------------------------------------------------
                  HL-Gap            0.0442334 Eh            1.2037 eV
             Fermi-level           -0.3421432 Eh           -9.3102 eV

 SCC (total)                   0 d,  0 h,  0 min,  0.246 sec
 SCC setup                      ...        0 min,  0.003 sec (  1.098%)
 Dispersion                     ...        0 min,  0.004 sec (  1.673%)
 classical contributions        ...        0 min,  0.000 sec (  0.066%)
 integral evaluation            ...        0 min,  0.011 sec (  4.633%)
 iterations                     ...        0 min,  0.192 sec ( 78.341%)
 molecular gradient             ...        0 min,  0.033 sec ( 13.627%)
 printout                       ...        0 min,  0.001 sec (  0.545%)

         :::::::::::::::::::::::::::::::::::::::::::::::::::::
         ::                     SUMMARY                     ::
         :::::::::::::::::::::::::::::::::::::::::::::::::::::
         :: total energy            -230.447652702233 Eh    ::
         :: total w/o Gsasa/hb      -230.369072126291 Eh    ::
         :: gradient norm              0.122084587954 Eh/a0 ::
         :: HOMO-LUMO gap              1.203652644066 eV    ::
         ::.................................................::
         :: SCC energy              -232.948610290834 Eh    ::
         :: -> isotropic ES            0.541069297688 Eh    ::
         :: -> anisotropic ES         -0.027480598414 Eh    ::
         :: -> anisotropic XC          0.018710036328 Eh    ::
         :: -> dispersion             -0.189237447186 Eh    ::
         :: -> Gsolv                  -0.115372393168 Eh    ::
         ::    -> Gelec               -0.036791817226 Eh    ::
         ::    -> Gsasa               -0.030581984358 Eh    ::
         ::    -> Ghb                 -0.050338260960 Eh    ::
         ::    -> Gshift               0.002339669376 Eh    ::
         :: repulsion energy           2.500957588600 Eh    ::
         :: add. restraining           0.000000000000 Eh    ::
         :: total charge               0.000000000000 e     ::
         :::::::::::::::::::::::::::::::::::::::::::::::::::::

           -------------------------------------------------
          |                Property Printout                |
           -------------------------------------------------

    * Orbital Energies and Occupations

         #    Occupation            Energy/Eh            Energy/eV
      -------------------------------------------------------------
         1        2.0000           -0.7785168             -21.1845
       ...           ...                  ...                  ...
       188        2.0000           -0.4159087             -11.3175
       189        2.0000           -0.4148438             -11.2885
       190        2.0000           -0.4127247             -11.2308
       191        2.0000           -0.4113327             -11.1929
       192        2.0000           -0.4105843             -11.1726
       193        2.0000           -0.4088639             -11.1258
       194        2.0000           -0.4083057             -11.1106
       195        2.0000           -0.4055432             -11.0354
       196        2.0000           -0.4044645             -11.0060
       197        2.0000           -0.4020510             -10.9404
       198        2.0000           -0.3942540             -10.7282
       199        2.0000           -0.3875010             -10.5444
       200        2.0000           -0.3642599              -9.9120 (HOMO)
       201                         -0.3200265              -8.7084 (LUMO)
       202                         -0.3009443              -8.1891
       203                         -0.2431873              -6.6175
       204                         -0.2407100              -6.5501
       205                         -0.2376933              -6.4680
       206                         -0.2364786              -6.4349
       207                         -0.2332034              -6.3458
       208                         -0.2288768              -6.2281
       209                         -0.1891769              -5.1478
       210                         -0.1709695              -4.6523
       211                         -0.1490863              -4.0568
       ...                                ...                  ...
       358                          0.6988674              19.0172
      -------------------------------------------------------------
                  HL-Gap            0.0442334 Eh            1.2037 eV
             Fermi-level           -0.3421432 Eh           -9.3102 eV

     #   Z          covCN         q      C6AA      α(0)
     1   6 C        2.841     0.145    24.834     8.167
     2   6 C        2.974    -0.024    28.601     8.772
     3   6 C        2.964    -0.002    28.084     8.692
     4   6 C        2.929    -0.082    30.050     8.990
     5   6 C        2.837     0.149    24.768     8.156
     6   6 C        2.920    -0.117    30.982     9.128
     7   6 C        3.747     0.098    19.021     6.221
     8   6 C        3.720     0.089    19.219     6.261
     9   6 C        3.765     0.105    18.901     6.197
    10   6 C        3.744     0.100    18.996     6.218
    11   6 C        3.745     0.087    19.210     6.252
    12   8 O        1.694    -0.352    19.925     6.026
    13   6 C        3.682     0.069    19.631     6.345
    14   8 O        1.653    -0.495    22.779     6.443
    15   8 O        1.651    -0.498    22.847     6.452
    16   8 O        1.698    -0.328    19.498     5.962
    17   8 O        1.702    -0.294    18.894     5.869
    18   6 C        3.676     0.076    19.532     6.332
    19   8 O        1.654    -0.472    22.309     6.376
    20   6 C        3.634     0.251    17.064     5.945
    21   8 O        1.696    -0.364    20.145     6.060
    22   6 C        3.740     0.093    19.112     6.238
    23   6 C        3.723     0.079    19.370     6.285
    24   6 C        3.723     0.088    19.227     6.262
    25   6 C        3.753     0.092    19.110     6.234
    26   8 O        1.653    -0.456    21.969     6.327
    27   8 O        1.699    -0.313    19.224     5.920
    28   8 O        1.653    -0.481    22.496     6.403
    29   6 C        3.732     0.056    19.725     6.339
    30   8 O        1.703    -0.279    18.629     5.827
    31   6 C        2.753     0.353    21.006     7.505
    32   8 O        0.857    -0.440    22.502     6.360
    33   6 C        2.737     0.355    20.977     7.499
    34   6 C        2.895    -0.096    30.406     9.041
    35   8 O        0.858    -0.489    23.550     6.506
    36   6 C        2.904    -0.003    28.097     8.691
    37   6 C        2.897    -0.054    29.329     8.879
    38   6 C        2.899    -0.008    28.208     8.708
    39   6 C        3.806    -0.087    22.154     6.701
    40   6 C        3.729     0.118    18.749     6.181
    41   6 C        2.894    -0.065    29.614     8.922
    42   8 O        1.652    -0.498    22.856     6.454
    43   6 C        2.897    -0.037    28.923     8.818
    44   6 C        2.896    -0.056    29.395     8.889
    45   6 C        2.894    -0.049    29.214     8.862
    46   6 C        3.805    -0.065    21.735     6.637
    47   6 C        3.801    -0.066    21.759     6.641
    48   6 C        3.800    -0.060    21.659     6.626
    49   6 C        3.798    -0.056    21.576     6.614
    50   6 C        3.750    -0.107    22.602     6.780
    51   8 O        1.657    -0.439    21.616     6.276
    52   8 O        1.657    -0.436    21.554     6.267
    53   6 C        3.653     0.239    17.156     5.948
    54   6 C        3.722     0.085    19.266     6.268
    55   6 C        3.723     0.096    19.094     6.240
    56   6 C        3.721     0.089    19.219     6.261
    57   6 C        3.747     0.104    18.935     6.207
    58   8 O        1.696    -0.351    19.916     6.025
    59   6 C        3.674     0.067    19.685     6.358
    60   8 O        1.653    -0.467    22.204     6.361
    61   8 O        1.654    -0.477    22.410     6.390
    62   8 O        1.654    -0.484    22.561     6.412
    63   8 O        1.652    -0.472    22.290     6.373
    64   6 C        2.965    -0.036    28.901     8.818
    65   6 C        2.927    -0.027    28.683     8.783
    66   6 C        2.915    -0.035    28.865     8.810
    67   6 C        2.922    -0.028    28.704     8.786
    68   6 C        2.990     0.017    27.623     8.621
    69   6 C        2.987     0.020    27.543     8.609
    70   6 C        2.922    -0.040    28.989     8.829
    71   6 C        2.919    -0.031    28.774     8.796
    72   6 C        2.918    -0.027    28.674     8.781
    73   6 C        2.922    -0.043    29.074     8.842
    74   1 H        0.926     0.072     2.062     2.245
    75   1 H        0.926     0.063     2.163     2.300
    76   1 H        0.923     0.071     2.080     2.255
    77   1 H        0.923     0.071     2.071     2.251
    78   1 H        0.924     0.040     2.450     2.448
    79   1 H        0.923     0.080     1.975     2.198
    80   1 H        0.923     0.050     2.319     2.382
    81   1 H        0.924     0.061     2.189     2.314
    82   1 H        0.924     0.039     2.462     2.454
    83   1 H        0.804     0.346     0.598     1.214
    84   1 H        0.803     0.335     0.625     1.242
    85   1 H        0.924     0.062     2.176     2.307
    86   1 H        0.924     0.040     2.449     2.447
    87   1 H        0.803     0.345     0.599     1.216
    88   1 H        0.923    -0.000     3.059     2.735
    89   1 H        0.923     0.045     2.388     2.417
    90   1 H        0.923     0.055     2.257     2.350
    91   1 H        0.923     0.083     1.950     2.184
    92   1 H        0.923     0.079     1.988     2.205
    93   1 H        0.803     0.351     0.585     1.202
    94   1 H        0.803     0.344     0.603     1.220
    95   1 H        0.924     0.094     1.845     2.124
    96   1 H        0.924     0.092     1.856     2.130
    97   1 H        0.926     0.077     2.013     2.219
    98   1 H        0.926     0.083     1.950     2.184
    99   1 H        0.926     0.073     2.054     2.241
   100   1 H        0.926     0.079     1.989     2.205
   101   1 H        0.924     0.088     1.901     2.156
   102   1 H        0.924     0.074     2.040     2.233
   103   1 H        0.923     0.033     2.543     2.494
   104   1 H        0.926     0.044     2.398     2.422
   105   1 H        0.804     0.337     0.619     1.236
   106   1 H        0.926     0.053     2.281     2.362
   107   1 H        0.926     0.034     2.528     2.486
   108   1 H        0.926     0.058     2.219     2.329
   109   1 H        0.924     0.039     2.458     2.452
   110   1 H        0.924     0.054     2.275     2.359
   111   1 H        0.924     0.020     2.738     2.588
   112   1 H        0.924     0.052     2.290     2.367
   113   1 H        0.924     0.031     2.570     2.507
   114   1 H        0.924     0.026     2.639     2.541
   115   1 H        0.923     0.029     2.602     2.523
   116   1 H        0.924     0.034     2.526     2.486
   117   1 H        0.924     0.029     2.597     2.520
   118   1 H        0.924     0.031     2.574     2.509
   119   1 H        0.924     0.042     2.423     2.434
   120   1 H        0.804     0.362     0.560     1.176
   121   1 H        0.804     0.359     0.567     1.183
   122   1 H        0.923     0.002     3.020     2.718
   123   1 H        0.924     0.062     2.180     2.309
   124   1 H        0.923     0.028     2.613     2.528
   125   1 H        0.923     0.044     2.392     2.419
   126   1 H        0.924     0.001     3.033     2.724
   127   1 H        0.924     0.095     1.835     2.118
   128   1 H        0.924     0.052     2.290     2.367
   129   1 H        0.803     0.366     0.552     1.167
   130   1 H        0.804     0.368     0.549     1.164
   131   1 H        0.804     0.359     0.569     1.185
   132   1 H        0.801     0.315     0.679     1.294
   133   1 H        0.926     0.057     2.232     2.336
   134   1 H        0.926     0.065     2.138     2.287
   135   1 H        0.926     0.069     2.099     2.266
   136   1 H        0.926     0.058     2.227     2.334
   137   1 H        0.926     0.053     2.287     2.365
   138   1 H        0.926     0.040     2.442     2.444
   139   1 H        0.926     0.073     2.056     2.242

 Mol. C6AA /au·bohr⁶  :     193263.740379
 Mol. C8AA /au·bohr⁸  :    4436633.988410
 Mol. α(0) /au        :        663.392168


Wiberg/Mayer (AO) data.
largest (>0.10) Wiberg bond orders for each atom

 ---------------------------------------------------------------------------
     #   Z sym  total        # sym  WBO       # sym  WBO       # sym  WBO
 ---------------------------------------------------------------------------
     1   6 C    3.940 --     6 C    1.384     2 C    1.335    51 O    1.072
     2   6 C    3.978 --     3 C    1.395     1 C    1.335     7 C    0.993
     3   6 C    3.987 --     4 C    1.428     2 C    1.395    13 C    0.997
     4   6 C    3.982 --     3 C    1.428     5 C    1.362    74 H    0.964
     5   6 C    3.944 --     6 C    1.378     4 C    1.362    52 O    1.074
     6   6 C    3.974 --     1 C    1.384     5 C    1.378    75 H    0.960
     7   6 C    3.932 --     2 C    0.993     8 C    0.949    12 O    0.946
                            76 H    0.943
     8   6 C    3.946 --    15 O    0.991     9 C    0.965     7 C    0.949
                            77 H    0.946
     9   6 C    3.925 --    10 C    0.970     8 C    0.965    78 H    0.949
                            17 O    0.936
    10   6 C    3.934 --     9 C    0.970    16 O    0.961    11 C    0.958
                            79 H    0.953
    11   6 C    3.947 --    18 C    0.982    12 O    0.969    10 C    0.958
                            80 H    0.938
    12   8 O    2.057 --    11 C    0.969     7 C    0.946
    13   6 C    3.950 --     3 C    0.997    14 O    0.984    82 H    0.967
                            81 H    0.958
    14   8 O    1.938 --    13 C    0.984    83 H    0.865
    15   8 O    1.917 --     8 C    0.991    84 H    0.842
    16   8 O    2.089 --    20 C    0.984    10 C    0.961
    17   8 O    2.273 --    33 C    1.098     9 C    0.936    35 O    0.146
    18   6 C    3.961 --    19 O    1.012    11 C    0.982    85 H    0.966
                            86 H    0.964
    19   8 O    1.935 --    18 C    1.012    87 H    0.865
    20   6 C    3.925 --    16 O    0.984    25 C    0.953    21 O    0.953
                            88 H    0.942
    21   8 O    2.058 --    20 C    0.953    22 C    0.949
    22   6 C    3.935 --    29 C    0.980    23 C    0.967    89 H    0.954
                            21 O    0.949
    23   6 C    3.962 --    28 O    0.999    22 C    0.967    24 C    0.966
                            90 H    0.956
    24   6 C    3.962 --    26 O    1.012    23 C    0.966    25 C    0.958
                            91 H    0.946
    25   6 C    3.939 --    27 O    0.969    24 C    0.958    92 H    0.954
                            20 C    0.953
    26   8 O    1.956 --    24 C    1.012    93 H    0.854
    27   8 O    2.095 --    53 C    0.987    25 C    0.969
    28   8 O    1.929 --    23 C    0.999    94 H    0.836
    29   6 C    3.923 --    22 C    0.980    96 H    0.961    30 O    0.960
                            95 H    0.952
    30   8 O    2.278 --    31 C    1.063    29 C    0.960    32 O    0.142
    31   6 C    3.899 --    32 O    1.687    30 O    1.063    64 C    1.038
    32   8 O    2.036 --    31 C    1.687    30 O    0.142
    33   6 C    3.896 --    35 O    1.604    17 O    1.098    34 C    1.079
    34   6 C    3.968 --    36 C    1.697    33 C    1.079    97 H    0.961
                            38 C    0.109
    35   8 O    1.975 --    33 C    1.604    17 O    0.146
    36   6 C    3.970 --    34 C    1.697    37 C    1.166    98 H    0.954
    37   6 C    3.984 --    38 C    1.762    36 C    1.166    99 H    0.958
    38   6 C    3.967 --    37 C    1.762    39 C    1.049   100 H    0.957
                            34 C    0.109
    39   6 C    3.991 --    38 C    1.049    40 C    0.974   102 H    0.957
                           101 H    0.934
    40   6 C    3.953 --    41 C    1.008    42 O    0.980    39 C    0.974
                           103 H    0.945
    41   6 C    3.984 --    43 C    1.845    40 C    1.008   104 H    0.959
                            45 C    0.113
    42   8 O    1.923 --    40 C    0.980   105 H    0.870
    43   6 C    3.990 --    41 C    1.845    44 C    1.110   106 H    0.963
    44   6 C    3.989 --    45 C    1.837    43 C    1.110   107 H    0.965
    45   6 C    3.986 --    44 C    1.837    46 C    1.033   108 H    0.947
                            41 C    0.113
    46   6 C    3.997 --    45 C    1.033    47 C    1.001   109 H    0.969
                           110 H    0.948
    47   6 C    3.992 --    48 C    1.008    46 C    1.001   111 H    0.973
                           112 H    0.966
    48   6 C    3.997 --    47 C    1.008    49 C    1.007   114 H    0.977
                           113 H    0.977
    49   6 C    3.996 --    50 C    1.021    48 C    1.007   115 H    0.977
                           116 H    0.975
    50   6 C    3.996 --    49 C    1.021   118 H    0.987   119 H    0.984
                           117 H    0.980
    51   8 O    2.089 --     1 C    1.072   120 H    0.848
    52   8 O    2.083 --     5 C    1.074   121 H    0.852
    53   6 C    3.923 --    27 O    0.987    54 C    0.955    58 O    0.953
                           122 H    0.943
    54   6 C    3.958 --    62 O    0.999    55 C    0.969    53 C    0.955
                           123 H    0.953
    55   6 C    3.966 --    61 O    1.003    54 C    0.969    56 C    0.968
                           124 H    0.959
    56   6 C    3.969 --    60 O    1.006    55 C    0.968    57 C    0.965
                           125 H    0.953
    57   6 C    3.939 --    59 C    0.980    56 C    0.965    58 O    0.954
                           126 H    0.938
    58   8 O    2.068 --    57 C    0.954    53 C    0.953
    59   6 C    3.948 --    63 O    1.006    57 C    0.980   128 H    0.961
                           127 H    0.955
    60   8 O    1.946 --    56 C    1.006   129 H    0.840
    61   8 O    1.934 --    55 C    1.003   130 H    0.847
    62   8 O    1.925 --    54 C    0.999   131 H    0.854
    63   8 O    1.941 --    59 C    1.006   132 H    0.861
    64   6 C    3.980 --    65 C    1.472    69 C    1.220    31 C    1.038
                            67 C    0.102
    65   6 C    3.988 --    64 C    1.472    66 C    1.346   133 H    0.963
    66   6 C    3.990 --    67 C    1.536    65 C    1.346   134 H    0.967
    67   6 C    3.986 --    66 C    1.536    68 C    1.279   135 H    0.965
                            64 C    0.102
    68   6 C    3.990 --    67 C    1.279    70 C    1.274    69 C    1.258
    69   6 C    3.988 --    73 C    1.294    68 C    1.258    64 C    1.220
    70   6 C    3.989 --    71 C    1.558    68 C    1.274   136 H    0.966
                            73 C    0.119
    71   6 C    3.991 --    70 C    1.558    72 C    1.326   137 H    0.969
    72   6 C    3.990 --    73 C    1.546    71 C    1.326   138 H    0.967
    73   6 C    3.987 --    72 C    1.546    69 C    1.294   139 H    0.950
                            70 C    0.119
    74   1 H    0.994 --     4 C    0.964
    75   1 H    0.995 --     6 C    0.960
    76   1 H    0.995 --     7 C    0.943
    77   1 H    0.995 --     8 C    0.946
    78   1 H    0.998 --     9 C    0.949
    79   1 H    0.993 --    10 C    0.953
    80   1 H    0.997 --    11 C    0.938
    81   1 H    0.996 --    13 C    0.958
    82   1 H    0.998 --    13 C    0.967
    83   1 H    0.880 --    14 O    0.865
    84   1 H    0.888 --    15 O    0.842
    85   1 H    0.996 --    18 C    0.966
    86   1 H    0.998 --    18 C    0.964
    87   1 H    0.881 --    19 O    0.865
    88   1 H    1.000 --    20 C    0.942
    89   1 H    0.997 --    22 C    0.954
    90   1 H    0.997 --    23 C    0.956
    91   1 H    0.993 --    24 C    0.946
    92   1 H    0.993 --    25 C    0.954
    93   1 H    0.876 --    26 O    0.854
    94   1 H    0.882 --    28 O    0.836
    95   1 H    0.991 --    29 C    0.952
    96   1 H    0.990 --    29 C    0.961
    97   1 H    0.994 --    34 C    0.961
    98   1 H    0.993 --    36 C    0.954
    99   1 H    0.995 --    37 C    0.958
   100   1 H    0.994 --    38 C    0.957
   101   1 H    0.981 --    39 C    0.934
   102   1 H    0.993 --    39 C    0.957
   103   1 H    0.998 --    40 C    0.945
   104   1 H    0.998 --    41 C    0.959
   105   1 H    0.886 --    42 O    0.870
   106   1 H    0.997 --    43 C    0.963
   107   1 H    0.999 --    44 C    0.965
   108   1 H    0.997 --    45 C    0.947
   109   1 H    0.998 --    46 C    0.969
   110   1 H    0.997 --    46 C    0.948
   111   1 H    0.999 --    47 C    0.973
   112   1 H    0.997 --    47 C    0.966
   113   1 H    0.999 --    48 C    0.977
   114   1 H    0.999 --    48 C    0.977
   115   1 H    0.999 --    49 C    0.977
   116   1 H    0.999 --    49 C    0.975
   117   1 H    0.999 --    50 C    0.980
   118   1 H    0.999 --    50 C    0.987
   119   1 H    0.998 --    50 C    0.984
   120   1 H    0.868 --    51 O    0.848
   121   1 H    0.870 --    52 O    0.852
   122   1 H    1.000 --    53 C    0.943
   123   1 H    0.996 --    54 C    0.953
   124   1 H    0.999 --    55 C    0.959
   125   1 H    0.998 --    56 C    0.953
   126   1 H    1.000 --    57 C    0.938
   127   1 H    0.991 --    59 C    0.955
   128   1 H    0.997 --    59 C    0.961
   129   1 H    0.866 --    60 O    0.840
   130   1 H    0.864 --    61 O    0.847
   131   1 H    0.871 --    62 O    0.854
   132   1 H    0.901 --    63 O    0.861
   133   1 H    0.996 --    65 C    0.963
   134   1 H    0.995 --    66 C    0.967
   135   1 H    0.994 --    67 C    0.965
   136   1 H    0.996 --    70 C    0.966
   137   1 H    0.996 --    71 C    0.969
   138   1 H    0.998 --    72 C    0.967
   139   1 H    0.994 --    73 C    0.950
 ---------------------------------------------------------------------------

Topologies differ in total number of bonds
Writing topology from bond orders to xtbtopo.mol

molecular dipole:
                 x           y           z       tot (Debye)
 q only:       -0.766      -1.650       0.328
   full:       -1.164      -2.271       0.569       6.646
molecular quadrupole (traceless):
                xx          xy          yy          xz          yz          zz
 q only:       49.545     -43.763      -2.275     -37.004       4.008     -47.270
  q+dip:       35.706     -46.047       4.610     -42.988       4.907     -40.316
   full:       36.163     -47.426       4.006     -47.296       5.135     -40.169


           -------------------------------------------------
          | TOTAL ENERGY             -230.447652702233 Eh   |
          | GRADIENT NORM               0.122084587954 Eh/α |
          | HOMO-LUMO GAP               1.203652644066 eV   |
           -------------------------------------------------

------------------------------------------------------------------------
 * finished run on 2026/06/19 at 18:52:30.225     
------------------------------------------------------------------------
 total:
 * wall-time:     0 d,  0 h,  0 min,  0.295 sec
 *  cpu-time:     0 d,  0 h,  0 min,  4.501 sec
 * ratio c/w:    15.262 speedup
 SCF:
 * wall-time:     0 d,  0 h,  0 min,  0.247 sec
 *  cpu-time:     0 d,  0 h,  0 min,  3.872 sec
 * ratio c/w:    15.687 speedup

normal termination of xtb
