      -----------------------------------------------------------      
     |                   =====================                   |     
     |                           x T B                           |     
     |                   =====================                   |     
     |                         S. Grimme                         |     
     |          Mulliken Center for Theoretical Chemistry        |     
     |                    University of Bonn                     |     
      -----------------------------------------------------------      

   * xtb version 6.7.1 (edcfbbe) compiled by 'albert@albert-system' on 2024-07-22

   xtb is free software: you can redistribute it and/or modify it under
   the terms of the GNU Lesser General Public License as published by
   the Free Software Foundation, either version 3 of the License, or
   (at your option) any later version.
   
   xtb is distributed in the hope that it will be useful,
   but WITHOUT ANY WARRANTY; without even the implied warranty of
   MERCHANTABILITY or FITNESS FOR A PARTICULAR PURPOSE.  See the
   GNU Lesser General Public License for more details.
   
   Cite this work as:
   * C. Bannwarth, E. Caldeweyher, S. Ehlert, A. Hansen, P. Pracht,
     J. Seibert, S. Spicher, S. Grimme, WIREs Comput. Mol. Sci., 2020, 11,
     e01493. DOI: 10.1002/wcms.1493
   
   for GFN2-xTB:
   * C. Bannwarth, S. Ehlert and S. Grimme., J. Chem. Theory Comput., 2019,
     15, 1652-1671. DOI: 10.1021/acs.jctc.8b01176
   for GFN1-xTB:
   * S. Grimme, C. Bannwarth, P. Shushkov, J. Chem. Theory Comput., 2017,
     13, 1989-2009. DOI: 10.1021/acs.jctc.7b00118
   for GFN0-xTB:
   * P. Pracht, E. Caldeweyher, S. Ehlert, S. Grimme, ChemRxiv, 2019, preprint.
     DOI: 10.26434/chemrxiv.8326202.v1
   for GFN-FF:
   * S. Spicher and S. Grimme, Angew. Chem. Int. Ed., 2020, 59, 15665-15673.
     DOI: 10.1002/anie.202004239
   
   for ALPB and GBSA implicit solvation:
   * S. Ehlert, M. Stahn, S. Spicher, S. Grimme, J. Chem. Theory Comput.,
     2021, 17, 4250-4261. DOI: 10.1021/acs.jctc.1c00471
   
   for ddCOSMO and CPCM-X implicit solvation:
   * M. Stahn, S. Ehlert, S. Grimme, J. Phys. Chem. A,
     2023, XX, XXXX-XXXX. DOI: 10.1021/acs.jpca.3c04382
   
   for DFT-D4:
   * E. Caldeweyher, C. Bannwarth and S. Grimme, J. Chem. Phys., 2017,
     147, 034112. DOI: 10.1063/1.4993215
   * E. Caldeweyher, S. Ehlert, A. Hansen, H. Neugebauer, S. Spicher,
     C. Bannwarth and S. Grimme, J. Chem. Phys., 2019, 150, 154122.
     DOI: 10.1063/1.5090222
   * E. Caldeweyher, J.-M. Mewes, S. Ehlert and S. Grimme, Phys. Chem. Chem. Phys.
     2020, 22, 8499-8512. DOI: 10.1039/D0CP00502A
   
   for sTDA-xTB:
   * S. Grimme and C. Bannwarth, J. Chem. Phys., 2016, 145, 054103.
     DOI: 10.1063/1.4959605
   
   in the mass-spec context:
   * V. Asgeirsson, C. Bauer and S. Grimme, Chem. Sci., 2017, 8, 4879.
     DOI: 10.1039/c7sc00601b
   * J. Koopman and S. Grimme, ACS Omega 2019, 4, 12, 15120-15133.
     DOI: 10.1021/acsomega.9b02011
   
   for metadynamics refer to:
   * S. Grimme, J. Chem. Theory Comput., 2019, 155, 2847-2862
     DOI: 10.1021/acs.jctc.9b00143
   
   for SPH calculations refer to:
   * S. Spicher and S. Grimme, J. Chem. Theory Comput., 2021, 17, 1701-1714
     DOI: 10.1021/acs.jctc.0c01306
   
   for ONIOM refer to:
   * C. Plett, A. Katbashev, S. Ehlert, S. Grimme, M. Bursch,
     Phys. Chem. Chem. Phys., 2023, 25, 17860-17868. DOI: 10.1039/D3CP02178E
   
   for DIPRO refer to:
   * J. Kohn, N. Gildemeister, S. Grimme, D. Fazzi, A. Hansen,
     J. Chem. Phys., 2023, just accepted.
   
   for PTB refer to:
   * S. Grimme, M. Mueller, A. Hansen, J. Chem. Phys., 2023, 158, 124111.
     DOI: 10.1063/5.0137838
   
   with help from (in alphabetical order)
   P. Atkinson, C. Bannwarth, F. Bohle, G. Brandenburg, E. Caldeweyher
   M. Checinski, S. Dohm, S. Ehlert, S. Ehrlich, I. Gerasimov, C. Hölzer
   A. Katbashev, J. Kohn, J. Koopman, C. Lavigne, S. Lehtola, F. März, M. Müller,
   F. Musil, H. Neugebauer, J. Pisarek, C. Plett, P. Pracht, F. Pultar,
   J. Seibert, P. Shushkov, S. Spicher, M. Stahn, M. Steiner, T. Strunk,
   J. Stückrath, T. Rose, and J. Unsleber
   
 * started run on 2026/06/19 at 18:52:21.865     
   ID    Z sym.   atoms
    1    6 C      1-11, 13, 18, 20, 22-25, 29, 31, 33, 34, 36-41, 43-50,
                  53-57, 59, 64-69
    2    8 O      12, 14-17, 19, 21, 26-28, 30, 32, 35, 42, 51, 52, 58, 60-63
    3    1 H      70-133

           -------------------------------------------------
          |                Calculation Setup                |
           -------------------------------------------------

          program call               : xtb PAPU-0074/conf02.xyz --gfn 2 --alpb octanol --chrg 0 --uhf 0 --namespace PAPU-0074/conf02_octanol
          hostname                   : cpu10
          calculation namespace      : PAPU-0074/conf02_octanol
          coordinate file            : PAPU-0074/conf02.xyz
          omp threads                :                    16


           -------------------------------------------------
          |                 G F N 2 - x T B                 |
           -------------------------------------------------

        Reference                      10.1021/acs.jctc.8b01176
      * Hamiltonian:
        H0-scaling (s, p, d)           1.850000    2.230000    2.230000
        zeta-weighting                 0.500000
      * Dispersion:
        s8                             2.700000
        a1                             0.520000
        a2                             5.000000
        s9                             5.000000
      * Repulsion:
        kExp                           1.500000    1.000000
        rExp                           1.000000
      * Coulomb:
        alpha                          2.000000
        third order                    shell-resolved
        anisotropic                    true
        a3                             3.000000
        a5                             4.000000
        cn-shift                       1.200000
        cn-exp                         4.000000
        max-rad                        5.000000

      * Solvation model:               ALPB
        Solvent                        octanol
        Parameter file                 internal GFN2-xTB/ALPB
        Dielectric constant                9.8629E+00
        Reference state                gsolv [1 M gas/solution]
        Free energy shift                  2.3397E-03 Eh       1.4682E+00 kcal/mol
        Temperature                        2.9815E+02 K
        Density                            8.3000E-01 kg/L
        Solvent mass                       1.3023E+02 g/mol
        Interaction kernel             P16
        Born radius scaling (c1)           1.5898E+00
        Born radii integrator          GBOBC
        Born offset                        0.0000E+00 a0       0.0000E+00 AA
        H-bond correction              true
        Ion screening                  false
        Surface tension                    1.0000E-05 Eh       1.5569E+01 dyn/cm
        Grid points                               230 per atom

          ...................................................
          :                      SETUP                      :
          :.................................................:
          :  # basis functions                 340          :
          :  # atomic orbitals                 340          :
          :  # shells                          202          :
          :  # electrons                       382          :
          :  max. iterations                   250          :
          :  Hamiltonian                  GFN2-xTB          :
          :  restarted?                      false          :
          :  GBSA solvation                   true          :
          :  PC potential                    false          :
          :  electronic temp.          300.0000000     K    :
          :  accuracy                    1.0000000          :
          :  -> integral cutoff          0.2500000E+02      :
          :  -> integral neglect         0.1000000E-07      :
          :  -> SCF convergence          0.1000000E-05 Eh   :
          :  -> wf. convergence          0.1000000E-03 e    :
          :  Broyden damping             0.4000000          :
          :  net charge                          0          :
          :  unpaired electrons                  0          :
          ...................................................

 iter      E             dE          RMSdq      gap      omega  full diag
   1   -222.9089686 -0.222909E+03  0.451E+00    2.56       0.0  T
   2   -223.1471055 -0.238137E+00  0.247E+00    1.93       1.0  T
   3   -223.1326152  0.144904E-01  0.107E+00    2.00       1.0  T
   4   -223.1693313 -0.367161E-01  0.311E-01    1.78       1.0  T
   5   -223.1748774 -0.554607E-02  0.130E-01    1.76       1.0  T
   6   -223.1755907 -0.713305E-03  0.625E-02    1.78       1.0  T
   7   -223.1757143 -0.123666E-03  0.275E-02    1.79       1.0  T
   8   -223.1757409 -0.265344E-04  0.111E-02    1.79       1.0  T
   9   -223.1757451 -0.421553E-05  0.453E-03    1.79       1.9  T
  10   -223.1757456 -0.547364E-06  0.279E-03    1.79       3.1  T
  11   -223.1757460 -0.375987E-06  0.134E-03    1.79       6.5  T
  12   -223.1757461 -0.471237E-07  0.597E-04    1.79      14.5  T
  13   -223.1757461 -0.140588E-07  0.264E-04    1.79      32.9  T

   *** convergence criteria satisfied after 13 iterations ***

         #    Occupation            Energy/Eh            Energy/eV
      -------------------------------------------------------------
         1        2.0000           -0.7748832             -21.0856
       ...           ...                  ...                  ...
       185        2.0000           -0.4174315             -11.3589
       186        2.0000           -0.4158376             -11.3155
       187        2.0000           -0.4134353             -11.2501
       188        2.0000           -0.4038137             -10.9883
       189        2.0000           -0.4030810             -10.9684
       190        2.0000           -0.3876740             -10.5491
       191        2.0000           -0.3736669             -10.1680 (HOMO)
       192                         -0.3080475              -8.3824 (LUMO)
       193                         -0.2865983              -7.7987
       194                         -0.2454863              -6.6800
       195                         -0.2376326              -6.4663
       196                         -0.2363909              -6.4325
       ...                                ...                  ...
       340                          0.6755366              18.3823
      -------------------------------------------------------------
                  HL-Gap            0.0656194 Eh            1.7856 eV
             Fermi-level           -0.3408572 Eh           -9.2752 eV

 SCC (total)                   0 d,  0 h,  0 min,  0.227 sec
 SCC setup                      ...        0 min,  0.003 sec (  1.385%)
 Dispersion                     ...        0 min,  0.003 sec (  1.427%)
 classical contributions        ...        0 min,  0.000 sec (  0.067%)
 integral evaluation            ...        0 min,  0.010 sec (  4.289%)
 iterations                     ...        0 min,  0.179 sec ( 78.788%)
 molecular gradient             ...        0 min,  0.031 sec ( 13.721%)
 printout                       ...        0 min,  0.001 sec (  0.303%)

         :::::::::::::::::::::::::::::::::::::::::::::::::::::
         ::                     SUMMARY                     ::
         :::::::::::::::::::::::::::::::::::::::::::::::::::::
         :: total energy            -220.856043004148 Eh    ::
         :: total w/o Gsasa/hb      -220.784357693038 Eh    ::
         :: gradient norm              0.115539306622 Eh/a0 ::
         :: HOMO-LUMO gap              1.785593483430 eV    ::
         ::.................................................::
         :: SCC energy              -223.163141564087 Eh    ::
         :: -> isotropic ES            0.528668043698 Eh    ::
         :: -> anisotropic ES         -0.019225826313 Eh    ::
         :: -> anisotropic XC          0.015044740817 Eh    ::
         :: -> dispersion             -0.178791404937 Eh    ::
         :: -> Gsolv                  -0.103609589999 Eh    ::
         ::    -> Gelec               -0.031924278889 Eh    ::
         ::    -> Gsasa               -0.027282151760 Eh    ::
         ::    -> Ghb                 -0.046742828726 Eh    ::
         ::    -> Gshift               0.002339669376 Eh    ::
         :: repulsion energy           2.307098559939 Eh    ::
         :: add. restraining           0.000000000000 Eh    ::
         :: total charge              -0.000000000000 e     ::
         :::::::::::::::::::::::::::::::::::::::::::::::::::::

           -------------------------------------------------
          |                Property Printout                |
           -------------------------------------------------

    * Orbital Energies and Occupations

         #    Occupation            Energy/Eh            Energy/eV
      -------------------------------------------------------------
         1        2.0000           -0.7748832             -21.0856
       ...           ...                  ...                  ...
       179        2.0000           -0.4246480             -11.5553
       180        2.0000           -0.4238596             -11.5338
       181        2.0000           -0.4215441             -11.4708
       182        2.0000           -0.4204800             -11.4418
       183        2.0000           -0.4185566             -11.3895
       184        2.0000           -0.4181259             -11.3778
       185        2.0000           -0.4174315             -11.3589
       186        2.0000           -0.4158376             -11.3155
       187        2.0000           -0.4134353             -11.2501
       188        2.0000           -0.4038137             -10.9883
       189        2.0000           -0.4030810             -10.9684
       190        2.0000           -0.3876740             -10.5491
       191        2.0000           -0.3736669             -10.1680 (HOMO)
       192                         -0.3080475              -8.3824 (LUMO)
       193                         -0.2865983              -7.7987
       194                         -0.2454863              -6.6800
       195                         -0.2376326              -6.4663
       196                         -0.2363909              -6.4325
       197                         -0.2349357              -6.3929
       198                         -0.2277089              -6.1963
       199                         -0.2154731              -5.8633
       200                         -0.1710446              -4.6544
       201                         -0.1452962              -3.9537
       202                         -0.1133746              -3.0851
       ...                                ...                  ...
       340                          0.6755366              18.3823
      -------------------------------------------------------------
                  HL-Gap            0.0656194 Eh            1.7856 eV
             Fermi-level           -0.3408572 Eh           -9.2752 eV

     #   Z          covCN         q      C6AA      α(0)
     1   6 C        2.840     0.143    24.890     8.176
     2   6 C        2.974    -0.026    28.656     8.781
     3   6 C        2.964    -0.001    28.054     8.688
     4   6 C        2.928    -0.097    30.452     9.050
     5   6 C        2.836     0.149    24.754     8.153
     6   6 C        2.922    -0.103    30.597     9.071
     7   6 C        3.737     0.107    18.898     6.203
     8   6 C        3.724     0.089    19.211     6.259
     9   6 C        3.764     0.113    18.768     6.175
    10   6 C        3.761     0.088    19.159     6.240
    11   6 C        3.734     0.094    19.104     6.238
    12   8 O        1.693    -0.343    19.772     6.003
    13   6 C        3.682     0.063    19.725     6.360
    14   8 O        1.653    -0.497    22.832     6.450
    15   8 O        1.651    -0.489    22.658     6.426
    16   8 O        1.699    -0.325    19.427     5.951
    17   8 O        1.701    -0.304    19.062     5.895
    18   6 C        3.675     0.074    19.571     6.339
    19   8 O        1.653    -0.470    22.256     6.368
    20   6 C        3.655     0.247    17.040     5.926
    21   8 O        1.696    -0.365    20.167     6.063
    22   6 C        3.741     0.101    18.996     6.218
    23   6 C        3.722     0.079    19.378     6.287
    24   6 C        3.725     0.097    19.078     6.237
    25   6 C        3.741     0.088    19.199     6.251
    26   8 O        1.651    -0.466    22.178     6.357
    27   8 O        1.698    -0.318    19.309     5.933
    28   8 O        1.653    -0.455    21.940     6.323
    29   6 C        3.725     0.065    19.585     6.319
    30   8 O        1.703    -0.259    18.301     5.776
    31   6 C        2.746     0.356    20.963     7.497
    32   8 O        0.857    -0.454    22.789     6.400
    33   6 C        2.733     0.355    20.977     7.498
    34   6 C        2.896    -0.093    30.322     9.028
    35   8 O        0.858    -0.447    22.646     6.380
    36   6 C        2.904    -0.008    28.219     8.710
    37   6 C        2.898    -0.045    29.114     8.847
    38   6 C        2.896    -0.021    28.524     8.757
    39   6 C        3.807    -0.082    22.052     6.685
    40   6 C        3.727     0.115    18.792     6.189
    41   6 C        2.895    -0.068    29.701     8.935
    42   8 O        1.652    -0.495    22.785     6.444
    43   6 C        2.897    -0.047    29.174     8.856
    44   6 C        2.899    -0.054    29.350     8.883
    45   6 C        2.894    -0.037    28.913     8.816
    46   6 C        3.805    -0.069    21.811     6.649
    47   6 C        3.800    -0.063    21.720     6.635
    48   6 C        3.800    -0.057    21.601     6.617
    49   6 C        3.799    -0.057    21.608     6.619
    50   6 C        3.751    -0.099    22.458     6.758
    51   8 O        1.656    -0.440    21.639     6.280
    52   8 O        1.657    -0.435    21.547     6.266
    53   6 C        3.635     0.224    17.431     6.008
    54   6 C        3.723     0.086    19.251     6.265
    55   6 C        3.724     0.093    19.150     6.249
    56   6 C        3.722     0.087    19.238     6.264
    57   6 C        3.739     0.091    19.150     6.244
    58   8 O        1.695    -0.352    19.931     6.028
    59   6 C        3.674     0.067    19.682     6.357
    60   8 O        1.654    -0.483    22.524     6.407
    61   8 O        1.654    -0.480    22.461     6.398
    62   8 O        1.652    -0.481    22.484     6.401
    63   8 O        1.654    -0.484    22.543     6.409
    64   6 C        2.973    -0.022    28.551     8.765
    65   6 C        2.929    -0.022    28.559     8.764
    66   6 C        2.922    -0.026    28.656     8.779
    67   6 C        2.925    -0.023    28.585     8.768
    68   6 C        2.922    -0.029    28.736     8.791
    69   6 C        2.929    -0.025    28.618     8.773
    70   1 H        0.926     0.062     2.173     2.305
    71   1 H        0.926     0.076     2.024     2.225
    72   1 H        0.924     0.036     2.507     2.476
    73   1 H        0.923     0.073     2.052     2.240
    74   1 H        0.923     0.023     2.695     2.567
    75   1 H        0.923     0.084     1.941     2.179
    76   1 H        0.924     0.032     2.556     2.500
    77   1 H        0.924     0.075     2.032     2.229
    78   1 H        0.924     0.037     2.495     2.470
    79   1 H        0.804     0.345     0.600     1.217
    80   1 H        0.802     0.338     0.618     1.235
    81   1 H        0.924     0.040     2.447     2.446
    82   1 H        0.924     0.074     2.047     2.238
    83   1 H        0.803     0.337     0.621     1.238
    84   1 H        0.924     0.012     2.852     2.641
    85   1 H        0.923     0.035     2.523     2.484
    86   1 H        0.923     0.087     1.912     2.163
    87   1 H        0.923     0.036     2.505     2.475
    88   1 H        0.924     0.049     2.330     2.387
    89   1 H        0.802     0.351     0.587     1.203
    90   1 H        0.804     0.333     0.630     1.247
    91   1 H        0.924     0.094     1.837     2.120
    92   1 H        0.924     0.091     1.872     2.140
    93   1 H        0.926     0.103     1.754     2.071
    94   1 H        0.926     0.068     2.112     2.272
    95   1 H        0.926     0.074     2.045     2.236
    96   1 H        0.926     0.060     2.195     2.317
    97   1 H        0.924     0.071     2.074     2.252
    98   1 H        0.924     0.061     2.189     2.314
    99   1 H        0.923     0.053     2.282     2.362
   100   1 H        0.926     0.052     2.299     2.371
   101   1 H        0.804     0.338     0.618     1.235
   102   1 H        0.926     0.046     2.369     2.407
   103   1 H        0.926     0.046     2.367     2.406
   104   1 H        0.926     0.019     2.742     2.589
   105   1 H        0.924     0.056     2.244     2.343
   106   1 H        0.924     0.060     2.200     2.320
   107   1 H        0.924     0.028     2.609     2.526
   108   1 H        0.924     0.040     2.452     2.449
   109   1 H        0.924     0.039     2.460     2.453
   110   1 H        0.924     0.014     2.819     2.626
   111   1 H        0.924     0.037     2.493     2.469
   112   1 H        0.924     0.029     2.595     2.519
   113   1 H        0.924     0.041     2.430     2.438
   114   1 H        0.925     0.010     2.894     2.660
   115   1 H        0.924     0.044     2.403     2.424
   116   1 H        0.803     0.363     0.558     1.174
   117   1 H        0.804     0.360     0.566     1.182
   118   1 H        0.923     0.060     2.200     2.319
   119   1 H        0.923     0.034     2.531     2.488
   120   1 H        0.923     0.041     2.432     2.439
   121   1 H        0.923     0.060     2.200     2.319
   122   1 H        0.923     0.046     2.369     2.407
   123   1 H        0.924     0.078     2.005     2.214
   124   1 H        0.924     0.057     2.237     2.339
   125   1 H        0.803     0.367     0.551     1.166
   126   1 H        0.804     0.365     0.555     1.171
   127   1 H        0.802     0.341     0.610     1.227
   128   1 H        0.803     0.353     0.582     1.198
   129   1 H        0.926     0.068     2.112     2.272
   130   1 H        0.926     0.060     2.201     2.320
   131   1 H        0.926     0.065     2.143     2.289
   132   1 H        0.926     0.066     2.133     2.284
   133   1 H        0.926     0.058     2.219     2.329

 Mol. C6AA /au·bohr⁶  :     172410.564004
 Mol. C8AA /au·bohr⁸  :    3924070.028852
 Mol. α(0) /au        :        623.557441


Wiberg/Mayer (AO) data.
largest (>0.10) Wiberg bond orders for each atom

 ---------------------------------------------------------------------------
     #   Z sym  total        # sym  WBO       # sym  WBO       # sym  WBO
 ---------------------------------------------------------------------------
     1   6 C    3.941 --     6 C    1.390     2 C    1.334    51 O    1.072
     2   6 C    3.976 --     3 C    1.395     1 C    1.334     7 C    0.993
     3   6 C    3.987 --     4 C    1.424     2 C    1.395    13 C    0.997
     4   6 C    3.980 --     3 C    1.424     5 C    1.363    70 H    0.962
     5   6 C    3.944 --     6 C    1.378     4 C    1.363    52 O    1.074
     6   6 C    3.977 --     1 C    1.390     5 C    1.378    71 H    0.961
     7   6 C    3.938 --     2 C    0.993    72 H    0.954    12 O    0.947
                             8 C    0.944
     8   6 C    3.952 --    15 O    1.000     9 C    0.966    73 H    0.946
                             7 C    0.944
     9   6 C    3.932 --    10 C    0.969     8 C    0.966    74 H    0.944
                            17 O    0.939
    10   6 C    3.931 --     9 C    0.969    11 C    0.958    75 H    0.953
                            16 O    0.952
    11   6 C    3.950 --    18 C    0.980    12 O    0.971    10 C    0.958
                            76 H    0.945
    12   8 O    2.065 --    11 C    0.971     7 C    0.947
    13   6 C    3.947 --     3 C    0.997    14 O    0.983    78 H    0.968
                            77 H    0.952
    14   8 O    1.938 --    13 C    0.983    79 H    0.866
    15   8 O    1.924 --     8 C    1.000    80 H    0.832
    16   8 O    2.108 --    20 C    0.986    10 C    0.952
    17   8 O    2.250 --    33 C    1.062     9 C    0.939    35 O    0.142
    18   6 C    3.960 --    19 O    1.015    11 C    0.980    82 H    0.967
                            81 H    0.964
    19   8 O    1.941 --    18 C    1.015    83 H    0.840
    20   6 C    3.928 --    16 O    0.986    25 C    0.955    21 O    0.954
                            84 H    0.937
    21   8 O    2.056 --    20 C    0.954    22 C    0.945
    22   6 C    3.933 --    29 C    0.984    23 C    0.960    85 H    0.950
                            21 O    0.945
    23   6 C    3.959 --    28 O    1.012    22 C    0.960    24 C    0.956
                            86 H    0.953
    24   6 C    3.967 --    26 O    1.009    25 C    0.966    23 C    0.956
                            87 H    0.951
    25   6 C    3.948 --    24 C    0.966    27 O    0.965    20 C    0.955
                            88 H    0.951
    26   8 O    1.942 --    24 C    1.009    89 H    0.827
    27   8 O    2.114 --    53 C    0.980    25 C    0.965
    28   8 O    1.961 --    23 C    1.012    90 H    0.868
    29   6 C    3.925 --    22 C    0.984    30 O    0.962    92 H    0.959
                            91 H    0.953
    30   8 O    2.301 --    31 C    1.104    29 C    0.962    32 O    0.154
    31   6 C    3.897 --    32 O    1.683    30 O    1.104    64 C    1.010
    32   8 O    2.015 --    31 C    1.683    30 O    0.154
    33   6 C    3.896 --    35 O    1.666    34 C    1.067    17 O    1.062
    34   6 C    3.963 --    36 C    1.731    33 C    1.067    93 H    0.950
                            38 C    0.109
    35   8 O    2.006 --    33 C    1.666    17 O    0.142
    36   6 C    3.975 --    34 C    1.731    37 C    1.151    94 H    0.950
    37   6 C    3.986 --    38 C    1.786    36 C    1.151    95 H    0.956
    38   6 C    3.962 --    37 C    1.786    39 C    1.044    96 H    0.957
                            34 C    0.109
    39   6 C    3.985 --    38 C    1.044    98 H    0.969    97 H    0.959
                            40 C    0.937
    40   6 C    3.941 --    41 C    1.006    42 O    0.983    99 H    0.957
                            39 C    0.937
    41   6 C    3.986 --    43 C    1.831    40 C    1.006   100 H    0.962
                            45 C    0.129
    42   8 O    1.931 --    40 C    0.983   101 H    0.869
    43   6 C    3.989 --    41 C    1.831    44 C    1.125   102 H    0.954
    44   6 C    3.989 --    45 C    1.827    43 C    1.125   103 H    0.962
    45   6 C    3.983 --    44 C    1.827    46 C    1.032   104 H    0.961
                            41 C    0.129
    46   6 C    3.996 --    45 C    1.032    47 C    1.007   105 H    0.958
                           106 H    0.953
    47   6 C    3.996 --    48 C    1.008    46 C    1.007   108 H    0.977
                           107 H    0.976
    48   6 C    3.995 --    47 C    1.008    49 C    1.007   109 H    0.976
                           110 H    0.968
    49   6 C    3.997 --    50 C    1.021    48 C    1.007   111 H    0.977
                           112 H    0.974
    50   6 C    3.995 --    49 C    1.021   115 H    0.986   113 H    0.982
                           114 H    0.977
    51   8 O    2.083 --     1 C    1.072   116 H    0.847
    52   8 O    2.084 --     5 C    1.074   117 H    0.852
    53   6 C    3.914 --    27 O    0.980    58 O    0.954    54 C    0.950
                           118 H    0.945
    54   6 C    3.961 --    62 O    1.002    55 C    0.968   119 H    0.951
                            53 C    0.950
    55   6 C    3.963 --    61 O    1.003    56 C    0.968    54 C    0.968
                           120 H    0.959
    56   6 C    3.961 --    60 O    1.000    57 C    0.968    55 C    0.968
                           121 H    0.957
    57   6 C    3.931 --    59 C    0.982    56 C    0.968   122 H    0.957
                            58 O    0.941
    58   8 O    2.074 --    53 C    0.954    57 C    0.941
    59   6 C    3.960 --    63 O    1.017    57 C    0.982   123 H    0.966
                           124 H    0.962
    60   8 O    1.944 --    56 C    1.000   125 H    0.837
    61   8 O    1.935 --    55 C    1.003   126 H    0.849
    62   8 O    1.933 --    54 C    1.002   127 H    0.841
    63   8 O    1.924 --    59 C    1.017   128 H    0.835
    64   6 C    3.982 --    65 C    1.383    69 C    1.380    31 C    1.010
                            67 C    0.101
    65   6 C    3.986 --    66 C    1.450    64 C    1.383   129 H    0.957
                            68 C    0.108
    66   6 C    3.989 --    65 C    1.450    67 C    1.435   130 H    0.967
                            69 C    0.108
    67   6 C    3.988 --    66 C    1.435    68 C    1.433   131 H    0.968
                            64 C    0.101
    68   6 C    3.990 --    69 C    1.452    67 C    1.433   132 H    0.967
                            65 C    0.108
    69   6 C    3.988 --    68 C    1.452    64 C    1.380   133 H    0.967
                            66 C    0.108
    70   1 H    0.996 --     4 C    0.962
    71   1 H    0.993 --     6 C    0.961
    72   1 H    0.998 --     7 C    0.954
    73   1 H    0.995 --     8 C    0.946
    74   1 H    0.999 --     9 C    0.944
    75   1 H    0.992 --    10 C    0.953
    76   1 H    0.999 --    11 C    0.945
    77   1 H    0.994 --    13 C    0.952
    78   1 H    0.998 --    13 C    0.968
    79   1 H    0.881 --    14 O    0.866
    80   1 H    0.886 --    15 O    0.832
    81   1 H    0.998 --    18 C    0.964
    82   1 H    0.994 --    18 C    0.967
    83   1 H    0.887 --    19 O    0.840
    84   1 H    1.000 --    20 C    0.937
    85   1 H    0.999 --    22 C    0.950
    86   1 H    0.992 --    23 C    0.953
    87   1 H    0.999 --    24 C    0.951
    88   1 H    0.997 --    25 C    0.951
    89   1 H    0.877 --    26 O    0.827
    90   1 H    0.889 --    28 O    0.868
    91   1 H    0.991 --    29 C    0.953
    92   1 H    0.990 --    29 C    0.959
    93   1 H    0.989 --    34 C    0.950
    94   1 H    0.995 --    36 C    0.950
    95   1 H    0.994 --    37 C    0.956
    96   1 H    0.996 --    38 C    0.957
    97   1 H    0.990 --    39 C    0.959
    98   1 H    0.996 --    39 C    0.969
    99   1 H    0.997 --    40 C    0.957
   100   1 H    0.997 --    41 C    0.962
   101   1 H    0.886 --    42 O    0.869
   102   1 H    0.998 --    43 C    0.954
   103   1 H    0.997 --    44 C    0.962
   104   1 H    1.000 --    45 C    0.961
   105   1 H    0.996 --    46 C    0.958
   106   1 H    0.996 --    46 C    0.953
   107   1 H    0.999 --    47 C    0.976
   108   1 H    0.998 --    47 C    0.977
   109   1 H    0.998 --    48 C    0.976
   110   1 H    1.000 --    48 C    0.968
   111   1 H    0.998 --    49 C    0.977
   112   1 H    0.999 --    49 C    0.974
   113   1 H    0.998 --    50 C    0.982
   114   1 H    1.000 --    50 C    0.977
   115   1 H    0.998 --    50 C    0.986
   116   1 H    0.867 --    51 O    0.847
   117   1 H    0.870 --    52 O    0.852
   118   1 H    0.996 --    53 C    0.945
   119   1 H    0.999 --    54 C    0.951
   120   1 H    0.998 --    55 C    0.959
   121   1 H    0.996 --    56 C    0.957
   122   1 H    0.998 --    57 C    0.957
   123   1 H    0.994 --    59 C    0.966
   124   1 H    0.996 --    59 C    0.962
   125   1 H    0.866 --    60 O    0.837
   126   1 H    0.867 --    61 O    0.849
   127   1 H    0.883 --    62 O    0.841
   128   1 H    0.875 --    63 O    0.835
   129   1 H    0.995 --    65 C    0.957
   130   1 H    0.996 --    66 C    0.967
   131   1 H    0.995 --    67 C    0.968
   132   1 H    0.995 --    68 C    0.967
   133   1 H    0.997 --    69 C    0.967
 ---------------------------------------------------------------------------

Topologies differ in total number of bonds
Writing topology from bond orders to xtbtopo.mol

molecular dipole:
                 x           y           z       tot (Debye)
 q only:       -0.959      -0.282      -2.100
   full:       -1.158      -0.115      -2.843       7.809
molecular quadrupole (traceless):
                xx          xy          yy          xz          yz          zz
 q only:       34.940       8.932      -0.567     -31.786     -14.000     -34.373
  q+dip:       17.854      13.919      13.094     -37.979     -16.648     -30.948
   full:       16.944      12.135       8.835     -37.943     -16.670     -25.780


           -------------------------------------------------
          | TOTAL ENERGY             -220.856043004148 Eh   |
          | GRADIENT NORM               0.115539306622 Eh/α |
          | HOMO-LUMO GAP               1.785593483430 eV   |
           -------------------------------------------------

------------------------------------------------------------------------
 * finished run on 2026/06/19 at 18:52:22.143     
------------------------------------------------------------------------
 total:
 * wall-time:     0 d,  0 h,  0 min,  0.278 sec
 *  cpu-time:     0 d,  0 h,  0 min,  4.209 sec
 * ratio c/w:    15.162 speedup
 SCF:
 * wall-time:     0 d,  0 h,  0 min,  0.228 sec
 *  cpu-time:     0 d,  0 h,  0 min,  3.570 sec
 * ratio c/w:    15.691 speedup

normal termination of xtb
