      -----------------------------------------------------------      
     |                   =====================                   |     
     |                           x T B                           |     
     |                   =====================                   |     
     |                         S. Grimme                         |     
     |          Mulliken Center for Theoretical Chemistry        |     
     |                    University of Bonn                     |     
      -----------------------------------------------------------      

   * xtb version 6.7.1 (edcfbbe) compiled by 'albert@albert-system' on 2024-07-22

   xtb is free software: you can redistribute it and/or modify it under
   the terms of the GNU Lesser General Public License as published by
   the Free Software Foundation, either version 3 of the License, or
   (at your option) any later version.
   
   xtb is distributed in the hope that it will be useful,
   but WITHOUT ANY WARRANTY; without even the implied warranty of
   MERCHANTABILITY or FITNESS FOR A PARTICULAR PURPOSE.  See the
   GNU Lesser General Public License for more details.
   
   Cite this work as:
   * C. Bannwarth, E. Caldeweyher, S. Ehlert, A. Hansen, P. Pracht,
     J. Seibert, S. Spicher, S. Grimme, WIREs Comput. Mol. Sci., 2020, 11,
     e01493. DOI: 10.1002/wcms.1493
   
   for GFN2-xTB:
   * C. Bannwarth, S. Ehlert and S. Grimme., J. Chem. Theory Comput., 2019,
     15, 1652-1671. DOI: 10.1021/acs.jctc.8b01176
   for GFN1-xTB:
   * S. Grimme, C. Bannwarth, P. Shushkov, J. Chem. Theory Comput., 2017,
     13, 1989-2009. DOI: 10.1021/acs.jctc.7b00118
   for GFN0-xTB:
   * P. Pracht, E. Caldeweyher, S. Ehlert, S. Grimme, ChemRxiv, 2019, preprint.
     DOI: 10.26434/chemrxiv.8326202.v1
   for GFN-FF:
   * S. Spicher and S. Grimme, Angew. Chem. Int. Ed., 2020, 59, 15665-15673.
     DOI: 10.1002/anie.202004239
   
   for ALPB and GBSA implicit solvation:
   * S. Ehlert, M. Stahn, S. Spicher, S. Grimme, J. Chem. Theory Comput.,
     2021, 17, 4250-4261. DOI: 10.1021/acs.jctc.1c00471
   
   for ddCOSMO and CPCM-X implicit solvation:
   * M. Stahn, S. Ehlert, S. Grimme, J. Phys. Chem. A,
     2023, XX, XXXX-XXXX. DOI: 10.1021/acs.jpca.3c04382
   
   for DFT-D4:
   * E. Caldeweyher, C. Bannwarth and S. Grimme, J. Chem. Phys., 2017,
     147, 034112. DOI: 10.1063/1.4993215
   * E. Caldeweyher, S. Ehlert, A. Hansen, H. Neugebauer, S. Spicher,
     C. Bannwarth and S. Grimme, J. Chem. Phys., 2019, 150, 154122.
     DOI: 10.1063/1.5090222
   * E. Caldeweyher, J.-M. Mewes, S. Ehlert and S. Grimme, Phys. Chem. Chem. Phys.
     2020, 22, 8499-8512. DOI: 10.1039/D0CP00502A
   
   for sTDA-xTB:
   * S. Grimme and C. Bannwarth, J. Chem. Phys., 2016, 145, 054103.
     DOI: 10.1063/1.4959605
   
   in the mass-spec context:
   * V. Asgeirsson, C. Bauer and S. Grimme, Chem. Sci., 2017, 8, 4879.
     DOI: 10.1039/c7sc00601b
   * J. Koopman and S. Grimme, ACS Omega 2019, 4, 12, 15120-15133.
     DOI: 10.1021/acsomega.9b02011
   
   for metadynamics refer to:
   * S. Grimme, J. Chem. Theory Comput., 2019, 155, 2847-2862
     DOI: 10.1021/acs.jctc.9b00143
   
   for SPH calculations refer to:
   * S. Spicher and S. Grimme, J. Chem. Theory Comput., 2021, 17, 1701-1714
     DOI: 10.1021/acs.jctc.0c01306
   
   for ONIOM refer to:
   * C. Plett, A. Katbashev, S. Ehlert, S. Grimme, M. Bursch,
     Phys. Chem. Chem. Phys., 2023, 25, 17860-17868. DOI: 10.1039/D3CP02178E
   
   for DIPRO refer to:
   * J. Kohn, N. Gildemeister, S. Grimme, D. Fazzi, A. Hansen,
     J. Chem. Phys., 2023, just accepted.
   
   for PTB refer to:
   * S. Grimme, M. Mueller, A. Hansen, J. Chem. Phys., 2023, 158, 124111.
     DOI: 10.1063/5.0137838
   
   with help from (in alphabetical order)
   P. Atkinson, C. Bannwarth, F. Bohle, G. Brandenburg, E. Caldeweyher
   M. Checinski, S. Dohm, S. Ehlert, S. Ehrlich, I. Gerasimov, C. Hölzer
   A. Katbashev, J. Kohn, J. Koopman, C. Lavigne, S. Lehtola, F. März, M. Müller,
   F. Musil, H. Neugebauer, J. Pisarek, C. Plett, P. Pracht, F. Pultar,
   J. Seibert, P. Shushkov, S. Spicher, M. Stahn, M. Steiner, T. Strunk,
   J. Stückrath, T. Rose, and J. Unsleber
   
 * started run on 2026/06/19 at 18:52:22.721     
   ID    Z sym.   atoms
    1    6 C      1-11, 13, 18, 20, 22-25, 29, 31, 33, 34, 36-41, 43-50,
                  53-57, 59, 64-69
    2    8 O      12, 14-17, 19, 21, 26-28, 30, 32, 35, 42, 51, 52, 58, 60-63
    3    1 H      70-133

           -------------------------------------------------
          |                Calculation Setup                |
           -------------------------------------------------

          program call               : xtb PAPU-0074/conf04.xyz --gfn 2 --alpb water --chrg 0 --uhf 0 --namespace PAPU-0074/conf04_water
          hostname                   : cpu10
          calculation namespace      : PAPU-0074/conf04_water
          coordinate file            : PAPU-0074/conf04.xyz
          omp threads                :                    16


           -------------------------------------------------
          |                 G F N 2 - x T B                 |
           -------------------------------------------------

        Reference                      10.1021/acs.jctc.8b01176
      * Hamiltonian:
        H0-scaling (s, p, d)           1.850000    2.230000    2.230000
        zeta-weighting                 0.500000
      * Dispersion:
        s8                             2.700000
        a1                             0.520000
        a2                             5.000000
        s9                             5.000000
      * Repulsion:
        kExp                           1.500000    1.000000
        rExp                           1.000000
      * Coulomb:
        alpha                          2.000000
        third order                    shell-resolved
        anisotropic                    true
        a3                             3.000000
        a5                             4.000000
        cn-shift                       1.200000
        cn-exp                         4.000000
        max-rad                        5.000000

      * Solvation model:               ALPB
        Solvent                        water
        Parameter file                 internal GFN2-xTB/ALPB
        Dielectric constant                8.0200E+01
        Reference state                gsolv [1 M gas/solution]
        Free energy shift                  1.0808E-03 Eh       6.7819E-01 kcal/mol
        Temperature                        2.9815E+02 K
        Density                            1.0000E+00 kg/L
        Solvent mass                       1.8000E+01 g/mol
        Interaction kernel             P16
        Born radius scaling (c1)           1.4744E+00
        Born radii integrator          GBOBC
        Born offset                        0.0000E+00 a0       0.0000E+00 AA
        H-bond correction              true
        Ion screening                  false
        Surface tension                    1.0000E-05 Eh       1.5569E+01 dyn/cm
        Grid points                               230 per atom

          ...................................................
          :                      SETUP                      :
          :.................................................:
          :  # basis functions                 340          :
          :  # atomic orbitals                 340          :
          :  # shells                          202          :
          :  # electrons                       382          :
          :  max. iterations                   250          :
          :  Hamiltonian                  GFN2-xTB          :
          :  restarted?                      false          :
          :  GBSA solvation                   true          :
          :  PC potential                    false          :
          :  electronic temp.          300.0000000     K    :
          :  accuracy                    1.0000000          :
          :  -> integral cutoff          0.2500000E+02      :
          :  -> integral neglect         0.1000000E-07      :
          :  -> SCF convergence          0.1000000E-05 Eh   :
          :  -> wf. convergence          0.1000000E-03 e    :
          :  Broyden damping             0.4000000          :
          :  net charge                          0          :
          :  unpaired electrons                  0          :
          ...................................................

 iter      E             dE          RMSdq      gap      omega  full diag
   1   -222.8869521 -0.222887E+03  0.461E+00    2.41       0.0  T
   2   -223.1183776 -0.231425E+00  0.252E+00    1.84       1.0  T
   3   -223.0986784  0.196991E-01  0.107E+00    1.87       1.0  T
   4   -223.1368940 -0.382155E-01  0.343E-01    1.63       1.0  T
   5   -223.1439803 -0.708634E-02  0.133E-01    1.62       1.0  T
   6   -223.1446702 -0.689897E-03  0.652E-02    1.62       1.0  T
   7   -223.1447734 -0.103215E-03  0.293E-02    1.63       1.0  T
   8   -223.1448047 -0.312436E-04  0.123E-02    1.63       1.0  T
   9   -223.1448093 -0.461806E-05  0.609E-03    1.63       1.4  T
  10   -223.1448105 -0.118950E-05  0.353E-03    1.62       2.5  T
  11   -223.1448110 -0.516930E-06  0.174E-03    1.62       5.0  T
  12   -223.1448111 -0.823990E-07  0.706E-04    1.62      12.3  T
  13   -223.1448111 -0.177542E-07  0.322E-04    1.62      26.9  T

   *** convergence criteria satisfied after 13 iterations ***

         #    Occupation            Energy/Eh            Energy/eV
      -------------------------------------------------------------
         1        2.0000           -0.7727395             -21.0273
       ...           ...                  ...                  ...
       185        2.0000           -0.4089193             -11.1273
       186        2.0000           -0.4038529             -10.9894
       187        2.0000           -0.4037003             -10.9852
       188        2.0000           -0.3960076             -10.7759
       189        2.0000           -0.3957674             -10.7694
       190        2.0000           -0.3822272             -10.4009
       191        2.0000           -0.3706756             -10.0866 (HOMO)
       192                         -0.3110568              -8.4643 (LUMO)
       193                         -0.2874435              -7.8217
       194                         -0.2408627              -6.5542
       195                         -0.2322402              -6.3196
       196                         -0.2303661              -6.2686
       ...                                ...                  ...
       340                          0.6878019              18.7160
      -------------------------------------------------------------
                  HL-Gap            0.0596188 Eh            1.6223 eV
             Fermi-level           -0.3408662 Eh           -9.2754 eV

 SCC (total)                   0 d,  0 h,  0 min,  0.221 sec
 SCC setup                      ...        0 min,  0.002 sec (  1.070%)
 Dispersion                     ...        0 min,  0.003 sec (  1.363%)
 classical contributions        ...        0 min,  0.000 sec (  0.046%)
 integral evaluation            ...        0 min,  0.010 sec (  4.350%)
 iterations                     ...        0 min,  0.174 sec ( 78.825%)
 molecular gradient             ...        0 min,  0.031 sec ( 14.023%)
 printout                       ...        0 min,  0.001 sec (  0.305%)

         :::::::::::::::::::::::::::::::::::::::::::::::::::::
         ::                     SUMMARY                     ::
         :::::::::::::::::::::::::::::::::::::::::::::::::::::
         :: total energy            -220.830904147368 Eh    ::
         :: total w/o Gsasa/hb      -220.798875770283 Eh    ::
         :: gradient norm              0.116834425335 Eh/a0 ::
         :: HOMO-LUMO gap              1.622309554880 eV    ::
         ::.................................................::
         :: SCC energy              -223.134612498255 Eh    ::
         :: -> isotropic ES            0.540397865643 Eh    ::
         :: -> anisotropic ES         -0.021699999549 Eh    ::
         :: -> anisotropic XC          0.015619980318 Eh    ::
         :: -> dispersion             -0.173012273318 Eh    ::
         :: -> Gsolv                  -0.080447526293 Eh    ::
         ::    -> Gelec               -0.048419149207 Eh    ::
         ::    -> Gsasa                0.007330602947 Eh    ::
         ::    -> Ghb                 -0.040439739731 Eh    ::
         ::    -> Gshift               0.001080759698 Eh    ::
         :: repulsion energy           2.303708350887 Eh    ::
         :: add. restraining           0.000000000000 Eh    ::
         :: total charge              -0.000000000000 e     ::
         :::::::::::::::::::::::::::::::::::::::::::::::::::::

           -------------------------------------------------
          |                Property Printout                |
           -------------------------------------------------

    * Orbital Energies and Occupations

         #    Occupation            Energy/Eh            Energy/eV
      -------------------------------------------------------------
         1        2.0000           -0.7727395             -21.0273
       ...           ...                  ...                  ...
       179        2.0000           -0.4160559             -11.3215
       180        2.0000           -0.4147093             -11.2848
       181        2.0000           -0.4136948             -11.2572
       182        2.0000           -0.4125593             -11.2263
       183        2.0000           -0.4109732             -11.1831
       184        2.0000           -0.4097903             -11.1510
       185        2.0000           -0.4089193             -11.1273
       186        2.0000           -0.4038529             -10.9894
       187        2.0000           -0.4037003             -10.9852
       188        2.0000           -0.3960076             -10.7759
       189        2.0000           -0.3957674             -10.7694
       190        2.0000           -0.3822272             -10.4009
       191        2.0000           -0.3706756             -10.0866 (HOMO)
       192                         -0.3110568              -8.4643 (LUMO)
       193                         -0.2874435              -7.8217
       194                         -0.2408627              -6.5542
       195                         -0.2322402              -6.3196
       196                         -0.2303661              -6.2686
       197                         -0.2290703              -6.2333
       198                         -0.2254286              -6.1342
       199                         -0.2073285              -5.6417
       200                         -0.1578101              -4.2942
       201                         -0.1400360              -3.8106
       202                         -0.1116493              -3.0381
       ...                                ...                  ...
       340                          0.6878019              18.7160
      -------------------------------------------------------------
                  HL-Gap            0.0596188 Eh            1.6223 eV
             Fermi-level           -0.3408662 Eh           -9.2754 eV

     #   Z          covCN         q      C6AA      α(0)
     1   6 C        2.840     0.136    25.020     8.197
     2   6 C        2.971    -0.043    29.060     8.842
     3   6 C        2.964    -0.000    28.037     8.685
     4   6 C        2.927    -0.093    30.328     9.031
     5   6 C        2.836     0.145    24.833     8.166
     6   6 C        2.921    -0.084    30.112     8.999
     7   6 C        3.732     0.106    18.918     6.208
     8   6 C        3.720     0.091    19.175     6.254
     9   6 C        3.766     0.111    18.800     6.180
    10   6 C        3.759     0.095    19.065     6.225
    11   6 C        3.735     0.097    19.067     6.232
    12   8 O        1.693    -0.343    19.763     6.002
    13   6 C        3.681     0.065    19.696     6.356
    14   8 O        1.653    -0.512    23.155     6.496
    15   8 O        1.651    -0.497    22.833     6.450
    16   8 O        1.699    -0.323    19.395     5.946
    17   8 O        1.701    -0.299    18.980     5.882
    18   6 C        3.674     0.077    19.512     6.330
    19   8 O        1.653    -0.478    22.435     6.394
    20   6 C        3.653     0.248    17.042     5.928
    21   8 O        1.696    -0.368    20.226     6.072
    22   6 C        3.740     0.103    18.959     6.212
    23   6 C        3.721     0.084    19.287     6.272
    24   6 C        3.722     0.097    19.076     6.237
    25   6 C        3.737     0.091    19.145     6.244
    26   8 O        1.652    -0.460    22.048     6.339
    27   8 O        1.697    -0.327    19.467     5.957
    28   8 O        1.653    -0.455    21.945     6.324
    29   6 C        3.723     0.066    19.576     6.318
    30   8 O        1.703    -0.273    18.525     5.811
    31   6 C        2.743     0.354    20.993     7.502
    32   8 O        0.857    -0.466    23.036     6.435
    33   6 C        2.735     0.354    20.990     7.501
    34   6 C        2.897    -0.088    30.215     9.013
    35   8 O        0.858    -0.486    23.478     6.496
    36   6 C        2.904     0.004    27.941     8.667
    37   6 C        2.899    -0.043    29.065     8.839
    38   6 C        2.896    -0.008    28.227     8.711
    39   6 C        3.807    -0.075    21.931     6.666
    40   6 C        3.727     0.121    18.704     6.175
    41   6 C        2.896    -0.068    29.703     8.936
    42   8 O        1.652    -0.520    23.320     6.519
    43   6 C        2.897    -0.034    28.840     8.805
    44   6 C        2.900    -0.061    29.509     8.907
    45   6 C        2.894    -0.034    28.853     8.807
    46   6 C        3.805    -0.068    21.792     6.646
    47   6 C        3.800    -0.057    21.596     6.617
    48   6 C        3.799    -0.058    21.626     6.621
    49   6 C        3.798    -0.057    21.604     6.618
    50   6 C        3.751    -0.113    22.728     6.799
    51   8 O        1.655    -0.448    21.811     6.304
    52   8 O        1.657    -0.452    21.880     6.314
    53   6 C        3.629     0.232    17.351     5.998
    54   6 C        3.723     0.091    19.169     6.252
    55   6 C        3.724     0.098    19.059     6.234
    56   6 C        3.723     0.093    19.139     6.248
    57   6 C        3.737     0.100    19.013     6.222
    58   8 O        1.695    -0.351    19.910     6.024
    59   6 C        3.675     0.071    19.617     6.346
    60   8 O        1.653    -0.491    22.708     6.433
    61   8 O        1.654    -0.495    22.787     6.444
    62   8 O        1.652    -0.485    22.570     6.413
    63   8 O        1.654    -0.487    22.621     6.420
    64   6 C        2.973    -0.023    28.576     8.769
    65   6 C        2.929    -0.025    28.629     8.775
    66   6 C        2.922    -0.023    28.576     8.766
    67   6 C        2.925    -0.018    28.455     8.748
    68   6 C        2.922    -0.027    28.667     8.780
    69   6 C        2.929    -0.019    28.482     8.752
    70   1 H        0.926     0.065     2.139     2.287
    71   1 H        0.926     0.076     2.016     2.220
    72   1 H        0.924     0.033     2.550     2.497
    73   1 H        0.923     0.071     2.076     2.253
    74   1 H        0.923     0.036     2.497     2.471
    75   1 H        0.923     0.091     1.873     2.140
    76   1 H        0.924     0.031     2.569     2.506
    77   1 H        0.924     0.073     2.056     2.242
    78   1 H        0.924     0.036     2.499     2.472
    79   1 H        0.804     0.356     0.575     1.191
    80   1 H        0.803     0.344     0.603     1.219
    81   1 H        0.924     0.046     2.364     2.405
    82   1 H        0.924     0.075     2.036     2.232
    83   1 H        0.802     0.334     0.628     1.245
    84   1 H        0.924     0.013     2.850     2.640
    85   1 H        0.923     0.035     2.522     2.483
    86   1 H        0.923     0.081     1.965     2.192
    87   1 H        0.923     0.037     2.492     2.469
    88   1 H        0.924     0.062     2.181     2.310
    89   1 H        0.802     0.342     0.606     1.223
    90   1 H        0.804     0.338     0.617     1.234
    91   1 H        0.924     0.094     1.840     2.121
    92   1 H        0.924     0.097     1.815     2.107
    93   1 H        0.926     0.096     1.823     2.111
    94   1 H        0.926     0.074     2.046     2.237
    95   1 H        0.926     0.072     2.058     2.244
    96   1 H        0.926     0.066     2.124     2.279
    97   1 H        0.924     0.093     1.850     2.127
    98   1 H        0.924     0.072     2.063     2.246
    99   1 H        0.923     0.022     2.708     2.573
   100   1 H        0.926     0.026     2.642     2.542
   101   1 H        0.804     0.355     0.577     1.193
   102   1 H        0.926     0.044     2.391     2.418
   103   1 H        0.926     0.049     2.330     2.387
   104   1 H        0.926     0.035     2.512     2.478
   105   1 H        0.924     0.044     2.394     2.420
   106   1 H        0.924     0.057     2.235     2.338
   107   1 H        0.924     0.026     2.637     2.540
   108   1 H        0.924     0.039     2.456     2.451
   109   1 H        0.924     0.026     2.638     2.540
   110   1 H        0.924     0.027     2.632     2.537
   111   1 H        0.923     0.020     2.727     2.583
   112   1 H        0.924     0.041     2.435     2.440
   113   1 H        0.924     0.021     2.714     2.576
   114   1 H        0.924     0.030     2.592     2.518
   115   1 H        0.925     0.058     2.224     2.332
   116   1 H        0.802     0.347     0.597     1.214
   117   1 H        0.804     0.380     0.522     1.135
   118   1 H        0.923     0.057     2.231     2.336
   119   1 H        0.924     0.038     2.475     2.460
   120   1 H        0.923     0.039     2.459     2.452
   121   1 H        0.923     0.056     2.249     2.345
   122   1 H        0.923     0.044     2.394     2.420
   123   1 H        0.924     0.074     2.046     2.237
   124   1 H        0.924     0.054     2.276     2.359
   125   1 H        0.803     0.373     0.537     1.151
   126   1 H        0.804     0.374     0.535     1.149
   127   1 H        0.802     0.337     0.619     1.236
   128   1 H        0.803     0.353     0.581     1.197
   129   1 H        0.926     0.057     2.230     2.335
   130   1 H        0.926     0.066     2.128     2.281
   131   1 H        0.926     0.064     2.158     2.297
   132   1 H        0.926     0.062     2.179     2.308
   133   1 H        0.926     0.068     2.110     2.271

 Mol. C6AA /au·bohr⁶  :     172450.669590
 Mol. C8AA /au·bohr⁸  :    3924550.896832
 Mol. α(0) /au        :        623.571407


Wiberg/Mayer (AO) data.
largest (>0.10) Wiberg bond orders for each atom

 ---------------------------------------------------------------------------
     #   Z sym  total        # sym  WBO       # sym  WBO       # sym  WBO
 ---------------------------------------------------------------------------
     1   6 C    3.942 --     6 C    1.400     2 C    1.335    51 O    1.061
     2   6 C    3.973 --     3 C    1.394     1 C    1.335     7 C    0.988
     3   6 C    3.987 --     4 C    1.423     2 C    1.394    13 C    0.998
     4   6 C    3.980 --     3 C    1.423     5 C    1.363    70 H    0.962
     5   6 C    3.944 --     6 C    1.376     4 C    1.363    52 O    1.076
     6   6 C    3.980 --     1 C    1.400     5 C    1.376    71 H    0.963
     7   6 C    3.940 --     2 C    0.988    12 O    0.952    72 H    0.951
                             8 C    0.950
     8   6 C    3.949 --    15 O    0.986     9 C    0.969    73 H    0.953
                             7 C    0.950
     9   6 C    3.931 --    10 C    0.970     8 C    0.969    74 H    0.947
                            17 O    0.939
    10   6 C    3.932 --     9 C    0.970    11 C    0.958    16 O    0.953
                            75 H    0.952
    11   6 C    3.948 --    18 C    0.981    12 O    0.968    10 C    0.958
                            76 H    0.943
    12   8 O    2.067 --    11 C    0.968     7 C    0.952
    13   6 C    3.948 --     3 C    0.998    14 O    0.984    78 H    0.969
                            77 H    0.948
    14   8 O    1.920 --    13 C    0.984    79 H    0.860
    15   8 O    1.941 --     8 C    0.986    80 H    0.827
    16   8 O    2.108 --    20 C    0.982    10 C    0.953
    17   8 O    2.256 --    33 C    1.067     9 C    0.939    35 O    0.139
    18   6 C    3.956 --    19 O    1.010    11 C    0.981    82 H    0.967
                            81 H    0.963
    19   8 O    1.935 --    18 C    1.010    83 H    0.843
    20   6 C    3.924 --    16 O    0.982    25 C    0.955    21 O    0.953
                            84 H    0.940
    21   8 O    2.056 --    20 C    0.953    22 C    0.946
    22   6 C    3.934 --    29 C    0.983    23 C    0.960    85 H    0.956
                            21 O    0.946
    23   6 C    3.960 --    28 O    1.012    22 C    0.960    24 C    0.957
                            86 H    0.956
    24   6 C    3.968 --    26 O    1.007    25 C    0.966    87 H    0.958
                            23 C    0.957
    25   6 C    3.946 --    27 O    0.966    24 C    0.966    20 C    0.955
                            88 H    0.949
    26   8 O    1.948 --    24 C    1.007    89 H    0.827
    27   8 O    2.100 --    53 C    0.985    25 C    0.966
    28   8 O    1.962 --    23 C    1.012    90 H    0.865
    29   6 C    3.918 --    22 C    0.983    92 H    0.959    30 O    0.956
                            91 H    0.954
    30   8 O    2.292 --    31 C    1.104    29 C    0.956    32 O    0.153
    31   6 C    3.898 --    32 O    1.669    30 O    1.104    64 C    1.020
    32   8 O    2.003 --    31 C    1.669    30 O    0.153
    33   6 C    3.895 --    35 O    1.630    34 C    1.093    17 O    1.067
    34   6 C    3.965 --    36 C    1.701    33 C    1.093    93 H    0.956
                            38 C    0.110
    35   8 O    1.966 --    33 C    1.630    17 O    0.139
    36   6 C    3.973 --    34 C    1.701    37 C    1.168    94 H    0.957
    37   6 C    3.986 --    38 C    1.770    36 C    1.168    95 H    0.958
    38   6 C    3.957 --    37 C    1.770    39 C    1.046    96 H    0.961
                            34 C    0.110
    39   6 C    3.983 --    38 C    1.046    40 C    0.968    98 H    0.963
                            97 H    0.933
    40   6 C    3.950 --    41 C    1.001    42 O    0.973    39 C    0.968
                            99 H    0.964
    41   6 C    3.974 --    43 C    1.837    40 C    1.001   100 H    0.962
                            45 C    0.127
    42   8 O    1.904 --    40 C    0.973   101 H    0.859
    43   6 C    3.990 --    41 C    1.837    44 C    1.123   102 H    0.962
    44   6 C    3.988 --    45 C    1.826    43 C    1.123   103 H    0.948
    45   6 C    3.984 --    44 C    1.826    46 C    1.035   104 H    0.965
                            41 C    0.127
    46   6 C    3.994 --    45 C    1.035    47 C    0.990   106 H    0.965
                           105 H    0.954
    47   6 C    3.990 --    48 C    1.007    46 C    0.990   107 H    0.977
                           108 H    0.974
    48   6 C    3.996 --    49 C    1.007    47 C    1.007   109 H    0.977
                           110 H    0.976
    49   6 C    3.997 --    50 C    1.021    48 C    1.007   111 H    0.978
                           112 H    0.974
    50   6 C    3.994 --    49 C    1.021   113 H    0.988   114 H    0.986
                           115 H    0.972
    51   8 O    2.059 --     1 C    1.061   116 H    0.829
    52   8 O    2.072 --     5 C    1.076   117 H    0.837
    53   6 C    3.913 --    27 O    0.985    54 C    0.950    58 O    0.950
                           118 H    0.944
    54   6 C    3.959 --    62 O    1.000    55 C    0.968    53 C    0.950
                           119 H    0.949
    55   6 C    3.962 --    61 O    1.000    56 C    0.968    54 C    0.968
                           120 H    0.959
    56   6 C    3.962 --    60 O    0.999    57 C    0.969    55 C    0.968
                           121 H    0.957
    57   6 C    3.932 --    59 C    0.982    56 C    0.969   122 H    0.956
                            58 O    0.940
    58   8 O    2.085 --    53 C    0.950    57 C    0.940
    59   6 C    3.958 --    63 O    1.014    57 C    0.982   124 H    0.962
                           123 H    0.962
    60   8 O    1.936 --    56 C    0.999   125 H    0.833
    61   8 O    1.925 --    55 C    1.000   126 H    0.842
    62   8 O    1.932 --    54 C    1.000   127 H    0.841
    63   8 O    1.926 --    59 C    1.014   128 H    0.836
    64   6 C    3.982 --    65 C    1.375    69 C    1.375    31 C    1.020
    65   6 C    3.989 --    66 C    1.456    64 C    1.375   129 H    0.967
                            68 C    0.106
    66   6 C    3.989 --    65 C    1.456    67 C    1.429   130 H    0.967
                            69 C    0.107
    67   6 C    3.987 --    68 C    1.433    66 C    1.429   131 H    0.968
    68   6 C    3.990 --    69 C    1.454    67 C    1.433   132 H    0.967
                            65 C    0.106
    69   6 C    3.986 --    68 C    1.454    64 C    1.375   133 H    0.959
                            66 C    0.107
    70   1 H    0.995 --     4 C    0.962
    71   1 H    0.993 --     6 C    0.963
    72   1 H    0.998 --     7 C    0.951
    73   1 H    0.995 --     8 C    0.953
    74   1 H    0.999 --     9 C    0.947
    75   1 H    0.991 --    10 C    0.952
    76   1 H    0.999 --    11 C    0.943
    77   1 H    0.994 --    13 C    0.948
    78   1 H    0.998 --    13 C    0.969
    79   1 H    0.873 --    14 O    0.860
    80   1 H    0.881 --    15 O    0.827
    81   1 H    0.997 --    18 C    0.963
    82   1 H    0.994 --    18 C    0.967
    83   1 H    0.889 --    19 O    0.843
    84   1 H    1.000 --    20 C    0.940
    85   1 H    0.999 --    22 C    0.956
    86   1 H    0.993 --    23 C    0.956
    87   1 H    0.999 --    24 C    0.958
    88   1 H    0.996 --    25 C    0.949
    89   1 H    0.882 --    26 O    0.827
    90   1 H    0.886 --    28 O    0.865
    91   1 H    0.991 --    29 C    0.954
    92   1 H    0.989 --    29 C    0.959
    93   1 H    0.990 --    34 C    0.956
    94   1 H    0.995 --    36 C    0.957
    95   1 H    0.995 --    37 C    0.958
    96   1 H    0.996 --    38 C    0.961
    97   1 H    0.980 --    39 C    0.933
    98   1 H    0.994 --    39 C    0.963
    99   1 H    0.999 --    40 C    0.964
   100   1 H    0.999 --    41 C    0.962
   101   1 H    0.873 --    42 O    0.859
   102   1 H    0.998 --    43 C    0.962
   103   1 H    0.998 --    44 C    0.948
   104   1 H    0.999 --    45 C    0.965
   105   1 H    0.992 --    46 C    0.954
   106   1 H    0.997 --    46 C    0.965
   107   1 H    0.999 --    47 C    0.977
   108   1 H    0.998 --    47 C    0.974
   109   1 H    0.999 --    48 C    0.977
   110   1 H    0.998 --    48 C    0.976
   111   1 H    0.999 --    49 C    0.978
   112   1 H    0.998 --    49 C    0.974
   113   1 H    1.000 --    50 C    0.988
   114   1 H    0.999 --    50 C    0.986
   115   1 H    0.997 --    50 C    0.972
   116   1 H    0.880 --    51 O    0.829
   117   1 H    0.855 --    52 O    0.837
   118   1 H    0.996 --    53 C    0.944
   119   1 H    0.998 --    54 C    0.949
   120   1 H    0.998 --    55 C    0.959
   121   1 H    0.996 --    56 C    0.957
   122   1 H    0.998 --    57 C    0.956
   123   1 H    0.994 --    59 C    0.962
   124   1 H    0.996 --    59 C    0.962
   125   1 H    0.861 --    60 O    0.833
   126   1 H    0.860 --    61 O    0.842
   127   1 H    0.886 --    62 O    0.841
   128   1 H    0.875 --    63 O    0.836
   129   1 H    0.997 --    65 C    0.967
   130   1 H    0.995 --    66 C    0.967
   131   1 H    0.995 --    67 C    0.968
   132   1 H    0.996 --    68 C    0.967
   133   1 H    0.995 --    69 C    0.959
 ---------------------------------------------------------------------------

Topologies differ in total number of bonds
Writing topology from bond orders to xtbtopo.mol

molecular dipole:
                 x           y           z       tot (Debye)
 q only:        1.333       1.936      -2.452
   full:        1.547       2.114      -3.063      10.243
molecular quadrupole (traceless):
                xx          xy          yy          xz          yz          zz
 q only:       28.141      -7.754      -4.724     -11.878     -15.137     -23.417
  q+dip:       11.322       1.152      11.499     -15.796     -21.825     -22.821
   full:       11.751       0.795       6.259     -16.302     -20.422     -18.011


           -------------------------------------------------
          | TOTAL ENERGY             -220.830904147368 Eh   |
          | GRADIENT NORM               0.116834425335 Eh/α |
          | HOMO-LUMO GAP               1.622309554880 eV   |
           -------------------------------------------------

------------------------------------------------------------------------
 * finished run on 2026/06/19 at 18:52:22.991     
------------------------------------------------------------------------
 total:
 * wall-time:     0 d,  0 h,  0 min,  0.269 sec
 *  cpu-time:     0 d,  0 h,  0 min,  4.106 sec
 * ratio c/w:    15.248 speedup
 SCF:
 * wall-time:     0 d,  0 h,  0 min,  0.222 sec
 *  cpu-time:     0 d,  0 h,  0 min,  3.514 sec
 * ratio c/w:    15.836 speedup

normal termination of xtb
