      -----------------------------------------------------------      
     |                   =====================                   |     
     |                           x T B                           |     
     |                   =====================                   |     
     |                         S. Grimme                         |     
     |          Mulliken Center for Theoretical Chemistry        |     
     |                    University of Bonn                     |     
      -----------------------------------------------------------      

   * xtb version 6.7.1 (edcfbbe) compiled by 'albert@albert-system' on 2024-07-22

   xtb is free software: you can redistribute it and/or modify it under
   the terms of the GNU Lesser General Public License as published by
   the Free Software Foundation, either version 3 of the License, or
   (at your option) any later version.
   
   xtb is distributed in the hope that it will be useful,
   but WITHOUT ANY WARRANTY; without even the implied warranty of
   MERCHANTABILITY or FITNESS FOR A PARTICULAR PURPOSE.  See the
   GNU Lesser General Public License for more details.
   
   Cite this work as:
   * C. Bannwarth, E. Caldeweyher, S. Ehlert, A. Hansen, P. Pracht,
     J. Seibert, S. Spicher, S. Grimme, WIREs Comput. Mol. Sci., 2020, 11,
     e01493. DOI: 10.1002/wcms.1493
   
   for GFN2-xTB:
   * C. Bannwarth, S. Ehlert and S. Grimme., J. Chem. Theory Comput., 2019,
     15, 1652-1671. DOI: 10.1021/acs.jctc.8b01176
   for GFN1-xTB:
   * S. Grimme, C. Bannwarth, P. Shushkov, J. Chem. Theory Comput., 2017,
     13, 1989-2009. DOI: 10.1021/acs.jctc.7b00118
   for GFN0-xTB:
   * P. Pracht, E. Caldeweyher, S. Ehlert, S. Grimme, ChemRxiv, 2019, preprint.
     DOI: 10.26434/chemrxiv.8326202.v1
   for GFN-FF:
   * S. Spicher and S. Grimme, Angew. Chem. Int. Ed., 2020, 59, 15665-15673.
     DOI: 10.1002/anie.202004239
   
   for ALPB and GBSA implicit solvation:
   * S. Ehlert, M. Stahn, S. Spicher, S. Grimme, J. Chem. Theory Comput.,
     2021, 17, 4250-4261. DOI: 10.1021/acs.jctc.1c00471
   
   for ddCOSMO and CPCM-X implicit solvation:
   * M. Stahn, S. Ehlert, S. Grimme, J. Phys. Chem. A,
     2023, XX, XXXX-XXXX. DOI: 10.1021/acs.jpca.3c04382
   
   for DFT-D4:
   * E. Caldeweyher, C. Bannwarth and S. Grimme, J. Chem. Phys., 2017,
     147, 034112. DOI: 10.1063/1.4993215
   * E. Caldeweyher, S. Ehlert, A. Hansen, H. Neugebauer, S. Spicher,
     C. Bannwarth and S. Grimme, J. Chem. Phys., 2019, 150, 154122.
     DOI: 10.1063/1.5090222
   * E. Caldeweyher, J.-M. Mewes, S. Ehlert and S. Grimme, Phys. Chem. Chem. Phys.
     2020, 22, 8499-8512. DOI: 10.1039/D0CP00502A
   
   for sTDA-xTB:
   * S. Grimme and C. Bannwarth, J. Chem. Phys., 2016, 145, 054103.
     DOI: 10.1063/1.4959605
   
   in the mass-spec context:
   * V. Asgeirsson, C. Bauer and S. Grimme, Chem. Sci., 2017, 8, 4879.
     DOI: 10.1039/c7sc00601b
   * J. Koopman and S. Grimme, ACS Omega 2019, 4, 12, 15120-15133.
     DOI: 10.1021/acsomega.9b02011
   
   for metadynamics refer to:
   * S. Grimme, J. Chem. Theory Comput., 2019, 155, 2847-2862
     DOI: 10.1021/acs.jctc.9b00143
   
   for SPH calculations refer to:
   * S. Spicher and S. Grimme, J. Chem. Theory Comput., 2021, 17, 1701-1714
     DOI: 10.1021/acs.jctc.0c01306
   
   for ONIOM refer to:
   * C. Plett, A. Katbashev, S. Ehlert, S. Grimme, M. Bursch,
     Phys. Chem. Chem. Phys., 2023, 25, 17860-17868. DOI: 10.1039/D3CP02178E
   
   for DIPRO refer to:
   * J. Kohn, N. Gildemeister, S. Grimme, D. Fazzi, A. Hansen,
     J. Chem. Phys., 2023, just accepted.
   
   for PTB refer to:
   * S. Grimme, M. Mueller, A. Hansen, J. Chem. Phys., 2023, 158, 124111.
     DOI: 10.1063/5.0137838
   
   with help from (in alphabetical order)
   P. Atkinson, C. Bannwarth, F. Bohle, G. Brandenburg, E. Caldeweyher
   M. Checinski, S. Dohm, S. Ehlert, S. Ehrlich, I. Gerasimov, C. Hölzer
   A. Katbashev, J. Kohn, J. Koopman, C. Lavigne, S. Lehtola, F. März, M. Müller,
   F. Musil, H. Neugebauer, J. Pisarek, C. Plett, P. Pracht, F. Pultar,
   J. Seibert, P. Shushkov, S. Spicher, M. Stahn, M. Steiner, T. Strunk,
   J. Stückrath, T. Rose, and J. Unsleber
   
 * started run on 2026/06/19 at 18:52:23.309     
   ID    Z sym.   atoms
    1    6 C      1-11, 13, 18, 20, 22-25, 29, 31, 33, 34, 36-41, 43-50,
                  53-57, 59, 64-69
    2    8 O      12, 14-17, 19, 21, 26-28, 30, 32, 35, 42, 51, 52, 58, 60-63
    3    1 H      70-133

           -------------------------------------------------
          |                Calculation Setup                |
           -------------------------------------------------

          program call               : xtb PAPU-0074/conf05.xyz --gfn 2 --alpb water --chrg 0 --uhf 0 --namespace PAPU-0074/conf05_water
          hostname                   : cpu10
          calculation namespace      : PAPU-0074/conf05_water
          coordinate file            : PAPU-0074/conf05.xyz
          omp threads                :                    16


           -------------------------------------------------
          |                 G F N 2 - x T B                 |
           -------------------------------------------------

        Reference                      10.1021/acs.jctc.8b01176
      * Hamiltonian:
        H0-scaling (s, p, d)           1.850000    2.230000    2.230000
        zeta-weighting                 0.500000
      * Dispersion:
        s8                             2.700000
        a1                             0.520000
        a2                             5.000000
        s9                             5.000000
      * Repulsion:
        kExp                           1.500000    1.000000
        rExp                           1.000000
      * Coulomb:
        alpha                          2.000000
        third order                    shell-resolved
        anisotropic                    true
        a3                             3.000000
        a5                             4.000000
        cn-shift                       1.200000
        cn-exp                         4.000000
        max-rad                        5.000000

      * Solvation model:               ALPB
        Solvent                        water
        Parameter file                 internal GFN2-xTB/ALPB
        Dielectric constant                8.0200E+01
        Reference state                gsolv [1 M gas/solution]
        Free energy shift                  1.0808E-03 Eh       6.7819E-01 kcal/mol
        Temperature                        2.9815E+02 K
        Density                            1.0000E+00 kg/L
        Solvent mass                       1.8000E+01 g/mol
        Interaction kernel             P16
        Born radius scaling (c1)           1.4744E+00
        Born radii integrator          GBOBC
        Born offset                        0.0000E+00 a0       0.0000E+00 AA
        H-bond correction              true
        Ion screening                  false
        Surface tension                    1.0000E-05 Eh       1.5569E+01 dyn/cm
        Grid points                               230 per atom

          ...................................................
          :                      SETUP                      :
          :.................................................:
          :  # basis functions                 340          :
          :  # atomic orbitals                 340          :
          :  # shells                          202          :
          :  # electrons                       382          :
          :  max. iterations                   250          :
          :  Hamiltonian                  GFN2-xTB          :
          :  restarted?                      false          :
          :  GBSA solvation                   true          :
          :  PC potential                    false          :
          :  electronic temp.          300.0000000     K    :
          :  accuracy                    1.0000000          :
          :  -> integral cutoff          0.2500000E+02      :
          :  -> integral neglect         0.1000000E-07      :
          :  -> SCF convergence          0.1000000E-05 Eh   :
          :  -> wf. convergence          0.1000000E-03 e    :
          :  Broyden damping             0.4000000          :
          :  net charge                          0          :
          :  unpaired electrons                  0          :
          ...................................................

 iter      E             dE          RMSdq      gap      omega  full diag
   1   -222.8891242 -0.222889E+03  0.463E+00    2.39       0.0  T
   2   -223.1274187 -0.238295E+00  0.252E+00    1.87       1.0  T
   3   -223.1108141  0.166046E-01  0.107E+00    1.95       1.0  T
   4   -223.1484496 -0.376355E-01  0.340E-01    1.72       1.0  T
   5   -223.1546488 -0.619914E-02  0.138E-01    1.70       1.0  T
   6   -223.1553052 -0.656468E-03  0.734E-02    1.71       1.0  T
   7   -223.1554606 -0.155421E-03  0.344E-02    1.71       1.0  T
   8   -223.1555061 -0.454266E-04  0.161E-02    1.71       1.0  T
   9   -223.1555153 -0.919184E-05  0.790E-03    1.71       1.1  T
  10   -223.1555174 -0.210695E-05  0.482E-03    1.71       1.8  T
  11   -223.1555183 -0.934214E-06  0.221E-03    1.70       3.9  T
  12   -223.1555184 -0.123227E-06  0.982E-04    1.70       8.8  T
  13   -223.1555185 -0.481353E-07  0.459E-04    1.70      18.9  T

   *** convergence criteria satisfied after 13 iterations ***

         #    Occupation            Energy/Eh            Energy/eV
      -------------------------------------------------------------
         1        2.0000           -0.7659569             -20.8427
       ...           ...                  ...                  ...
       185        2.0000           -0.4117847             -11.2052
       186        2.0000           -0.4084602             -11.1148
       187        2.0000           -0.4065155             -11.0618
       188        2.0000           -0.4026323             -10.9562
       189        2.0000           -0.3971700             -10.8075
       190        2.0000           -0.3817562             -10.3881
       191        2.0000           -0.3724836             -10.1358 (HOMO)
       192                         -0.3098827              -8.4323 (LUMO)
       193                         -0.2819556              -7.6724
       194                         -0.2428028              -6.6070
       195                         -0.2312070              -6.2915
       196                         -0.2297952              -6.2530
       ...                                ...                  ...
       340                          0.6737761              18.3344
      -------------------------------------------------------------
                  HL-Gap            0.0626009 Eh            1.7035 eV
             Fermi-level           -0.3411831 Eh           -9.2841 eV

 SCC (total)                   0 d,  0 h,  0 min,  0.223 sec
 SCC setup                      ...        0 min,  0.003 sec (  1.122%)
 Dispersion                     ...        0 min,  0.003 sec (  1.401%)
 classical contributions        ...        0 min,  0.000 sec (  0.063%)
 integral evaluation            ...        0 min,  0.010 sec (  4.337%)
 iterations                     ...        0 min,  0.176 sec ( 78.952%)
 molecular gradient             ...        0 min,  0.031 sec ( 13.798%)
 printout                       ...        0 min,  0.001 sec (  0.310%)

         :::::::::::::::::::::::::::::::::::::::::::::::::::::
         ::                     SUMMARY                     ::
         :::::::::::::::::::::::::::::::::::::::::::::::::::::
         :: total energy            -220.836933528507 Eh    ::
         :: total w/o Gsasa/hb      -220.801999278495 Eh    ::
         :: gradient norm              0.113470714773 Eh/a0 ::
         :: HOMO-LUMO gap              1.703457928209 eV    ::
         ::.................................................::
         :: SCC energy              -223.142758246704 Eh    ::
         :: -> isotropic ES            0.550083728691 Eh    ::
         :: -> anisotropic ES         -0.025696400312 Eh    ::
         :: -> anisotropic XC          0.014638990183 Eh    ::
         :: -> dispersion             -0.180554510554 Eh    ::
         :: -> Gsolv                  -0.089057593378 Eh    ::
         ::    -> Gelec               -0.054123343366 Eh    ::
         ::    -> Gsasa                0.008212728664 Eh    ::
         ::    -> Ghb                 -0.044227738374 Eh    ::
         ::    -> Gshift               0.001080759698 Eh    ::
         :: repulsion energy           2.305824718197 Eh    ::
         :: add. restraining           0.000000000000 Eh    ::
         :: total charge              -0.000000000000 e     ::
         :::::::::::::::::::::::::::::::::::::::::::::::::::::

           -------------------------------------------------
          |                Property Printout                |
           -------------------------------------------------

    * Orbital Energies and Occupations

         #    Occupation            Energy/Eh            Energy/eV
      -------------------------------------------------------------
         1        2.0000           -0.7659569             -20.8427
       ...           ...                  ...                  ...
       179        2.0000           -0.4209908             -11.4557
       180        2.0000           -0.4188523             -11.3975
       181        2.0000           -0.4164011             -11.3308
       182        2.0000           -0.4157711             -11.3137
       183        2.0000           -0.4143817             -11.2759
       184        2.0000           -0.4123343             -11.2202
       185        2.0000           -0.4117847             -11.2052
       186        2.0000           -0.4084602             -11.1148
       187        2.0000           -0.4065155             -11.0618
       188        2.0000           -0.4026323             -10.9562
       189        2.0000           -0.3971700             -10.8075
       190        2.0000           -0.3817562             -10.3881
       191        2.0000           -0.3724836             -10.1358 (HOMO)
       192                         -0.3098827              -8.4323 (LUMO)
       193                         -0.2819556              -7.6724
       194                         -0.2428028              -6.6070
       195                         -0.2312070              -6.2915
       196                         -0.2297952              -6.2530
       197                         -0.2290797              -6.2336
       198                         -0.2217898              -6.0352
       199                         -0.2108997              -5.7389
       200                         -0.1668952              -4.5414
       201                         -0.1482564              -4.0343
       202                         -0.1070535              -2.9131
       ...                                ...                  ...
       340                          0.6737761              18.3344
      -------------------------------------------------------------
                  HL-Gap            0.0626009 Eh            1.7035 eV
             Fermi-level           -0.3411831 Eh           -9.2841 eV

     #   Z          covCN         q      C6AA      α(0)
     1   6 C        2.839     0.140    24.945     8.185
     2   6 C        2.974    -0.028    28.703     8.788
     3   6 C        2.964    -0.001    28.055     8.688
     4   6 C        2.928    -0.092    30.318     9.030
     5   6 C        2.836     0.145    24.841     8.168
     6   6 C        2.922    -0.098    30.460     9.051
     7   6 C        3.736     0.108    18.881     6.201
     8   6 C        3.723     0.091    19.173     6.253
     9   6 C        3.767     0.117    18.704     6.164
    10   6 C        3.758     0.092    19.104     6.232
    11   6 C        3.733     0.098    19.050     6.230
    12   8 O        1.692    -0.347    19.846     6.014
    13   6 C        3.682     0.066    19.668     6.351
    14   8 O        1.653    -0.511    23.127     6.492
    15   8 O        1.651    -0.486    22.602     6.418
    16   8 O        1.698    -0.324    19.423     5.950
    17   8 O        1.701    -0.315    19.250     5.924
    18   6 C        3.675     0.077    19.510     6.329
    19   8 O        1.653    -0.477    22.414     6.391
    20   6 C        3.653     0.251    16.995     5.920
    21   8 O        1.696    -0.362    20.112     6.055
    22   6 C        3.743     0.114    18.778     6.182
    23   6 C        3.722     0.096    19.098     6.241
    24   6 C        3.723     0.101    19.020     6.228
    25   6 C        3.732     0.089    19.190     6.253
    26   8 O        1.652    -0.470    22.267     6.370
    27   8 O        1.697    -0.333    19.572     5.973
    28   8 O        1.653    -0.497    22.838     6.451
    29   6 C        3.724     0.070    19.506     6.307
    30   8 O        1.703    -0.264    18.377     5.788
    31   6 C        2.745     0.356    20.966     7.497
    32   8 O        0.857    -0.465    23.028     6.434
    33   6 C        2.733     0.352    21.020     7.506
    34   6 C        2.895    -0.083    30.086     8.993
    35   8 O        0.857    -0.464    23.010     6.431
    36   6 C        2.901     0.007    27.862     8.655
    37   6 C        2.898    -0.041    29.020     8.833
    38   6 C        2.894    -0.020    28.501     8.753
    39   6 C        3.807    -0.068    21.795     6.646
    40   6 C        3.727     0.121    18.704     6.175
    41   6 C        2.895    -0.068    29.704     8.936
    42   8 O        1.652    -0.520    23.320     6.519
    43   6 C        2.898    -0.049    29.208     8.861
    44   6 C        2.898    -0.053    29.323     8.879
    45   6 C        2.896    -0.038    28.944     8.821
    46   6 C        3.805    -0.067    21.777     6.643
    47   6 C        3.800    -0.062    21.689     6.631
    48   6 C        3.800    -0.055    21.571     6.613
    49   6 C        3.799    -0.058    21.624     6.621
    50   6 C        3.751    -0.096    22.391     6.748
    51   8 O        1.656    -0.442    21.688     6.287
    52   8 O        1.657    -0.452    21.877     6.314
    53   6 C        3.628     0.231    17.372     6.003
    54   6 C        3.723     0.091    19.183     6.255
    55   6 C        3.724     0.098    19.064     6.235
    56   6 C        3.722     0.093    19.147     6.249
    57   6 C        3.739     0.097    19.057     6.229
    58   8 O        1.696    -0.350    19.882     6.020
    59   6 C        3.674     0.073    19.585     6.342
    60   8 O        1.654    -0.490    22.680     6.429
    61   8 O        1.654    -0.494    22.759     6.440
    62   8 O        1.652    -0.483    22.540     6.409
    63   8 O        1.654    -0.496    22.807     6.447
    64   6 C        2.974    -0.019    28.483     8.754
    65   6 C        2.929    -0.019    28.482     8.752
    66   6 C        2.922    -0.025    28.621     8.773
    67   6 C        2.925    -0.022    28.559     8.764
    68   6 C        2.922    -0.029    28.724     8.789
    69   6 C        2.929    -0.023    28.577     8.767
    70   1 H        0.926     0.064     2.149     2.292
    71   1 H        0.926     0.074     2.039     2.233
    72   1 H        0.924     0.033     2.539     2.492
    73   1 H        0.923     0.071     2.073     2.252
    74   1 H        0.924     0.022     2.709     2.574
    75   1 H        0.923     0.086     1.923     2.168
    76   1 H        0.924     0.028     2.617     2.530
    77   1 H        0.924     0.068     2.107     2.270
    78   1 H        0.924     0.038     2.479     2.462
    79   1 H        0.804     0.357     0.571     1.187
    80   1 H        0.802     0.332     0.633     1.250
    81   1 H        0.924     0.048     2.349     2.397
    82   1 H        0.924     0.071     2.071     2.251
    83   1 H        0.803     0.334     0.627     1.244
    84   1 H        0.924     0.007     2.942     2.682
    85   1 H        0.923     0.034     2.524     2.485
    86   1 H        0.923     0.055     2.255     2.349
    87   1 H        0.923     0.033     2.538     2.491
    88   1 H        0.924     0.068     2.109     2.271
    89   1 H        0.802     0.346     0.598     1.215
    90   1 H        0.803     0.381     0.522     1.135
    91   1 H        0.924     0.096     1.826     2.113
    92   1 H        0.924     0.092     1.862     2.134
    93   1 H        0.926     0.084     1.937     2.176
    94   1 H        0.926     0.082     1.962     2.190
    95   1 H        0.926     0.078     1.995     2.209
    96   1 H        0.926     0.065     2.137     2.286
    97   1 H        0.924     0.063     2.160     2.298
    98   1 H        0.924     0.068     2.109     2.271
    99   1 H        0.923     0.031     2.571     2.508
   100   1 H        0.926     0.051     2.313     2.378
   101   1 H        0.804     0.357     0.572     1.188
   102   1 H        0.926     0.048     2.344     2.394
   103   1 H        0.926     0.043     2.405     2.425
   104   1 H        0.926     0.024     2.672     2.556
   105   1 H        0.924     0.054     2.275     2.359
   106   1 H        0.924     0.059     2.215     2.327
   107   1 H        0.924     0.030     2.590     2.517
   108   1 H        0.924     0.038     2.478     2.462
   109   1 H        0.924     0.033     2.549     2.497
   110   1 H        0.924     0.016     2.802     2.618
   111   1 H        0.924     0.036     2.505     2.475
   112   1 H        0.924     0.032     2.561     2.503
   113   1 H        0.924     0.041     2.441     2.443
   114   1 H        0.925     0.008     2.921     2.673
   115   1 H        0.924     0.039     2.460     2.453
   116   1 H        0.803     0.365     0.554     1.169
   117   1 H        0.804     0.379     0.524     1.137
   118   1 H        0.923     0.060     2.200     2.320
   119   1 H        0.924     0.043     2.408     2.427
   120   1 H        0.923     0.039     2.456     2.451
   121   1 H        0.923     0.057     2.232     2.337
   122   1 H        0.923     0.046     2.370     2.408
   123   1 H        0.924     0.072     2.062     2.246
   124   1 H        0.924     0.055     2.255     2.348
   125   1 H        0.803     0.374     0.535     1.149
   126   1 H        0.804     0.374     0.536     1.150
   127   1 H        0.802     0.335     0.626     1.243
   128   1 H        0.803     0.358     0.570     1.186
   129   1 H        0.926     0.064     2.155     2.296
   130   1 H        0.926     0.056     2.245     2.343
   131   1 H        0.926     0.065     2.141     2.288
   132   1 H        0.926     0.068     2.106     2.269
   133   1 H        0.926     0.056     2.246     2.343

 Mol. C6AA /au·bohr⁶  :     172606.508295
 Mol. C8AA /au·bohr⁸  :    3926719.848525
 Mol. α(0) /au        :        623.869337


Wiberg/Mayer (AO) data.
largest (>0.10) Wiberg bond orders for each atom

 ---------------------------------------------------------------------------
     #   Z sym  total        # sym  WBO       # sym  WBO       # sym  WBO
 ---------------------------------------------------------------------------
     1   6 C    3.941 --     6 C    1.390     2 C    1.335    51 O    1.070
     2   6 C    3.976 --     3 C    1.394     1 C    1.335     7 C    0.993
     3   6 C    3.987 --     4 C    1.425     2 C    1.394    13 C    0.997
     4   6 C    3.980 --     3 C    1.425     5 C    1.363    70 H    0.962
     5   6 C    3.945 --     6 C    1.378     4 C    1.363    52 O    1.076
     6   6 C    3.977 --     1 C    1.390     5 C    1.378    71 H    0.961
     7   6 C    3.938 --     2 C    0.993    72 H    0.955    12 O    0.947
                             8 C    0.945
     8   6 C    3.951 --    15 O    0.996     9 C    0.969    73 H    0.947
                             7 C    0.945
     9   6 C    3.932 --     8 C    0.969    10 C    0.969    74 H    0.940
                            17 O    0.938
    10   6 C    3.933 --     9 C    0.969    11 C    0.958    16 O    0.955
                            75 H    0.953
    11   6 C    3.950 --    18 C    0.980    12 O    0.968    10 C    0.958
                            76 H    0.946
    12   8 O    2.063 --    11 C    0.968     7 C    0.947
    13   6 C    3.947 --     3 C    0.997    14 O    0.982    78 H    0.968
                            77 H    0.952
    14   8 O    1.927 --    13 C    0.982    79 H    0.858
    15   8 O    1.926 --     8 C    0.996    80 H    0.843
    16   8 O    2.103 --    20 C    0.985    10 C    0.955
    17   8 O    2.224 --    33 C    1.045     9 C    0.938    35 O    0.132
    18   6 C    3.957 --    19 O    1.011    11 C    0.980    82 H    0.968
                            81 H    0.964
    19   8 O    1.938 --    18 C    1.011    83 H    0.841
    20   6 C    3.926 --    16 O    0.985    21 O    0.957    25 C    0.955
                            84 H    0.932
    21   8 O    2.060 --    20 C    0.957    22 C    0.949
    22   6 C    3.936 --    29 C    0.984    23 C    0.968    85 H    0.951
                            21 O    0.949
    23   6 C    3.965 --    28 O    1.008    22 C    0.968    24 C    0.964
                            86 H    0.951
    24   6 C    3.965 --    26 O    1.004    25 C    0.965    23 C    0.964
                            87 H    0.952
    25   6 C    3.942 --    24 C    0.965    27 O    0.960    20 C    0.955
                            88 H    0.950
    26   8 O    1.949 --    24 C    1.004    89 H    0.822
    27   8 O    2.104 --    53 C    0.982    25 C    0.960
    28   8 O    1.912 --    23 C    1.008    90 H    0.831
    29   6 C    3.919 --    22 C    0.984    92 H    0.959    30 O    0.956
                            91 H    0.954
    30   8 O    2.302 --    31 C    1.109    29 C    0.956    32 O    0.154
    31   6 C    3.895 --    32 O    1.676    30 O    1.109    64 C    1.010
    32   8 O    2.009 --    31 C    1.676    30 O    0.154
    33   6 C    3.897 --    35 O    1.655    34 C    1.088    17 O    1.045
    34   6 C    3.972 --    36 C    1.723    33 C    1.088    93 H    0.958
    35   8 O    2.008 --    33 C    1.655    17 O    0.132
    36   6 C    3.971 --    34 C    1.723    37 C    1.138    94 H    0.953
    37   6 C    3.985 --    38 C    1.801    36 C    1.138    95 H    0.952
    38   6 C    3.979 --    37 C    1.801    39 C    1.039    96 H    0.954
    39   6 C    3.985 --    38 C    1.039    98 H    0.967    97 H    0.961
                            40 C    0.947
    40   6 C    3.945 --    41 C    1.007    42 O    0.974    99 H    0.957
                            39 C    0.947
    41   6 C    3.985 --    43 C    1.835    40 C    1.007   100 H    0.963
                            45 C    0.124
    42   8 O    1.900 --    40 C    0.974   101 H    0.858
    43   6 C    3.989 --    41 C    1.835    44 C    1.120   102 H    0.951
    44   6 C    3.990 --    45 C    1.832    43 C    1.120   103 H    0.962
    45   6 C    3.983 --    44 C    1.832    46 C    1.032   104 H    0.958
                            41 C    0.124
    46   6 C    3.996 --    45 C    1.032    47 C    1.007   105 H    0.957
                           106 H    0.955
    47   6 C    3.996 --    48 C    1.008    46 C    1.007   108 H    0.977
                           107 H    0.977
    48   6 C    3.996 --    47 C    1.008    49 C    1.007   109 H    0.976
                           110 H    0.970
    49   6 C    3.996 --    50 C    1.021    48 C    1.007   111 H    0.977
                           112 H    0.973
    50   6 C    3.994 --    49 C    1.021   115 H    0.986   113 H    0.981
                           114 H    0.976
    51   8 O    2.081 --     1 C    1.070   116 H    0.846
    52   8 O    2.071 --     5 C    1.076   117 H    0.838
    53   6 C    3.913 --    27 O    0.982    54 C    0.952    58 O    0.951
                           118 H    0.945
    54   6 C    3.957 --    62 O    0.998    55 C    0.967    53 C    0.952
                           119 H    0.948
    55   6 C    3.962 --    61 O    1.001    56 C    0.968    54 C    0.967
                           120 H    0.959
    56   6 C    3.962 --    60 O    1.000    57 C    0.968    55 C    0.968
                           121 H    0.957
    57   6 C    3.932 --    59 C    0.982    56 C    0.968   122 H    0.956
                            58 O    0.941
    58   8 O    2.081 --    53 C    0.951    57 C    0.941
    59   6 C    3.959 --    63 O    1.014    57 C    0.982   123 H    0.965
                           124 H    0.962
    60   8 O    1.938 --    56 C    1.000   125 H    0.832
    61   8 O    1.926 --    55 C    1.001   126 H    0.843
    62   8 O    1.933 --    54 C    0.998   127 H    0.849
    63   8 O    1.917 --    59 C    1.014   128 H    0.831
    64   6 C    3.981 --    65 C    1.383    69 C    1.381    31 C    1.010
                            67 C    0.101
    65   6 C    3.986 --    66 C    1.450    64 C    1.383   129 H    0.958
                            68 C    0.108
    66   6 C    3.990 --    65 C    1.450    67 C    1.435   130 H    0.968
                            69 C    0.108
    67   6 C    3.988 --    66 C    1.435    68 C    1.432   131 H    0.968
                            64 C    0.101
    68   6 C    3.989 --    69 C    1.453    67 C    1.432   132 H    0.967
                            65 C    0.108
    69   6 C    3.988 --    68 C    1.453    64 C    1.381   133 H    0.967
                            66 C    0.108
    70   1 H    0.996 --     4 C    0.962
    71   1 H    0.994 --     6 C    0.961
    72   1 H    0.999 --     7 C    0.955
    73   1 H    0.995 --     8 C    0.947
    74   1 H    0.999 --     9 C    0.940
    75   1 H    0.992 --    10 C    0.953
    76   1 H    0.999 --    11 C    0.946
    77   1 H    0.995 --    13 C    0.952
    78   1 H    0.998 --    13 C    0.968
    79   1 H    0.872 --    14 O    0.858
    80   1 H    0.890 --    15 O    0.843
    81   1 H    0.997 --    18 C    0.964
    82   1 H    0.995 --    18 C    0.968
    83   1 H    0.888 --    19 O    0.841
    84   1 H    1.000 --    20 C    0.932
    85   1 H    0.999 --    22 C    0.951
    86   1 H    0.997 --    23 C    0.951
    87   1 H    0.999 --    24 C    0.952
    88   1 H    0.995 --    25 C    0.950
    89   1 H    0.880 --    26 O    0.822
    90   1 H    0.855 --    28 O    0.831
    91   1 H    0.991 --    29 C    0.954
    92   1 H    0.990 --    29 C    0.959
    93   1 H    0.993 --    34 C    0.958
    94   1 H    0.993 --    36 C    0.953
    95   1 H    0.993 --    37 C    0.952
    96   1 H    0.996 --    38 C    0.954
    97   1 H    0.994 --    39 C    0.961
    98   1 H    0.995 --    39 C    0.967
    99   1 H    0.999 --    40 C    0.957
   100   1 H    0.997 --    41 C    0.963
   101   1 H    0.872 --    42 O    0.858
   102   1 H    0.998 --    43 C    0.951
   103   1 H    0.998 --    44 C    0.962
   104   1 H    0.999 --    45 C    0.958
   105   1 H    0.997 --    46 C    0.957
   106   1 H    0.996 --    46 C    0.955
   107   1 H    0.999 --    47 C    0.977
   108   1 H    0.998 --    47 C    0.977
   109   1 H    0.999 --    48 C    0.976
   110   1 H    1.000 --    48 C    0.970
   111   1 H    0.998 --    49 C    0.977
   112   1 H    0.999 --    49 C    0.973
   113   1 H    0.998 --    50 C    0.981
   114   1 H    1.000 --    50 C    0.976
   115   1 H    0.998 --    50 C    0.986
   116   1 H    0.866 --    51 O    0.846
   117   1 H    0.856 --    52 O    0.838
   118   1 H    0.996 --    53 C    0.945
   119   1 H    0.998 --    54 C    0.948
   120   1 H    0.998 --    55 C    0.959
   121   1 H    0.996 --    56 C    0.957
   122   1 H    0.998 --    57 C    0.956
   123   1 H    0.994 --    59 C    0.965
   124   1 H    0.996 --    59 C    0.962
   125   1 H    0.860 --    60 O    0.832
   126   1 H    0.860 --    61 O    0.843
   127   1 H    0.888 --    62 O    0.849
   128   1 H    0.872 --    63 O    0.831
   129   1 H    0.996 --    65 C    0.958
   130   1 H    0.996 --    66 C    0.968
   131   1 H    0.995 --    67 C    0.968
   132   1 H    0.995 --    68 C    0.967
   133   1 H    0.997 --    69 C    0.967
 ---------------------------------------------------------------------------

Topologies differ in total number of bonds
Writing topology from bond orders to xtbtopo.mol

molecular dipole:
                 x           y           z       tot (Debye)
 q only:        0.184      -0.779      -1.260
   full:        0.160      -0.712      -1.752       4.824
molecular quadrupole (traceless):
                xx          xy          yy          xz          yz          zz
 q only:       49.068       9.317      -3.627       0.628     -27.866     -45.441
  q+dip:       31.621      12.608      11.953       2.246     -33.545     -43.574
   full:       31.107      11.522       6.167       1.860     -33.487     -37.274


           -------------------------------------------------
          | TOTAL ENERGY             -220.836933528507 Eh   |
          | GRADIENT NORM               0.113470714773 Eh/α |
          | HOMO-LUMO GAP               1.703457928209 eV   |
           -------------------------------------------------

------------------------------------------------------------------------
 * finished run on 2026/06/19 at 18:52:23.585     
------------------------------------------------------------------------
 total:
 * wall-time:     0 d,  0 h,  0 min,  0.275 sec
 *  cpu-time:     0 d,  0 h,  0 min,  4.130 sec
 * ratio c/w:    14.995 speedup
 SCF:
 * wall-time:     0 d,  0 h,  0 min,  0.224 sec
 *  cpu-time:     0 d,  0 h,  0 min,  3.542 sec
 * ratio c/w:    15.782 speedup

normal termination of xtb
