      -----------------------------------------------------------      
     |                   =====================                   |     
     |                           x T B                           |     
     |                   =====================                   |     
     |                         S. Grimme                         |     
     |          Mulliken Center for Theoretical Chemistry        |     
     |                    University of Bonn                     |     
      -----------------------------------------------------------      

   * xtb version 6.7.1 (edcfbbe) compiled by 'albert@albert-system' on 2024-07-22

   xtb is free software: you can redistribute it and/or modify it under
   the terms of the GNU Lesser General Public License as published by
   the Free Software Foundation, either version 3 of the License, or
   (at your option) any later version.
   
   xtb is distributed in the hope that it will be useful,
   but WITHOUT ANY WARRANTY; without even the implied warranty of
   MERCHANTABILITY or FITNESS FOR A PARTICULAR PURPOSE.  See the
   GNU Lesser General Public License for more details.
   
   Cite this work as:
   * C. Bannwarth, E. Caldeweyher, S. Ehlert, A. Hansen, P. Pracht,
     J. Seibert, S. Spicher, S. Grimme, WIREs Comput. Mol. Sci., 2020, 11,
     e01493. DOI: 10.1002/wcms.1493
   
   for GFN2-xTB:
   * C. Bannwarth, S. Ehlert and S. Grimme., J. Chem. Theory Comput., 2019,
     15, 1652-1671. DOI: 10.1021/acs.jctc.8b01176
   for GFN1-xTB:
   * S. Grimme, C. Bannwarth, P. Shushkov, J. Chem. Theory Comput., 2017,
     13, 1989-2009. DOI: 10.1021/acs.jctc.7b00118
   for GFN0-xTB:
   * P. Pracht, E. Caldeweyher, S. Ehlert, S. Grimme, ChemRxiv, 2019, preprint.
     DOI: 10.26434/chemrxiv.8326202.v1
   for GFN-FF:
   * S. Spicher and S. Grimme, Angew. Chem. Int. Ed., 2020, 59, 15665-15673.
     DOI: 10.1002/anie.202004239
   
   for ALPB and GBSA implicit solvation:
   * S. Ehlert, M. Stahn, S. Spicher, S. Grimme, J. Chem. Theory Comput.,
     2021, 17, 4250-4261. DOI: 10.1021/acs.jctc.1c00471
   
   for ddCOSMO and CPCM-X implicit solvation:
   * M. Stahn, S. Ehlert, S. Grimme, J. Phys. Chem. A,
     2023, XX, XXXX-XXXX. DOI: 10.1021/acs.jpca.3c04382
   
   for DFT-D4:
   * E. Caldeweyher, C. Bannwarth and S. Grimme, J. Chem. Phys., 2017,
     147, 034112. DOI: 10.1063/1.4993215
   * E. Caldeweyher, S. Ehlert, A. Hansen, H. Neugebauer, S. Spicher,
     C. Bannwarth and S. Grimme, J. Chem. Phys., 2019, 150, 154122.
     DOI: 10.1063/1.5090222
   * E. Caldeweyher, J.-M. Mewes, S. Ehlert and S. Grimme, Phys. Chem. Chem. Phys.
     2020, 22, 8499-8512. DOI: 10.1039/D0CP00502A
   
   for sTDA-xTB:
   * S. Grimme and C. Bannwarth, J. Chem. Phys., 2016, 145, 054103.
     DOI: 10.1063/1.4959605
   
   in the mass-spec context:
   * V. Asgeirsson, C. Bauer and S. Grimme, Chem. Sci., 2017, 8, 4879.
     DOI: 10.1039/c7sc00601b
   * J. Koopman and S. Grimme, ACS Omega 2019, 4, 12, 15120-15133.
     DOI: 10.1021/acsomega.9b02011
   
   for metadynamics refer to:
   * S. Grimme, J. Chem. Theory Comput., 2019, 155, 2847-2862
     DOI: 10.1021/acs.jctc.9b00143
   
   for SPH calculations refer to:
   * S. Spicher and S. Grimme, J. Chem. Theory Comput., 2021, 17, 1701-1714
     DOI: 10.1021/acs.jctc.0c01306
   
   for ONIOM refer to:
   * C. Plett, A. Katbashev, S. Ehlert, S. Grimme, M. Bursch,
     Phys. Chem. Chem. Phys., 2023, 25, 17860-17868. DOI: 10.1039/D3CP02178E
   
   for DIPRO refer to:
   * J. Kohn, N. Gildemeister, S. Grimme, D. Fazzi, A. Hansen,
     J. Chem. Phys., 2023, just accepted.
   
   for PTB refer to:
   * S. Grimme, M. Mueller, A. Hansen, J. Chem. Phys., 2023, 158, 124111.
     DOI: 10.1063/5.0137838
   
   with help from (in alphabetical order)
   P. Atkinson, C. Bannwarth, F. Bohle, G. Brandenburg, E. Caldeweyher
   M. Checinski, S. Dohm, S. Ehlert, S. Ehrlich, I. Gerasimov, C. Hölzer
   A. Katbashev, J. Kohn, J. Koopman, C. Lavigne, S. Lehtola, F. März, M. Müller,
   F. Musil, H. Neugebauer, J. Pisarek, C. Plett, P. Pracht, F. Pultar,
   J. Seibert, P. Shushkov, S. Spicher, M. Stahn, M. Steiner, T. Strunk,
   J. Stückrath, T. Rose, and J. Unsleber
   
 * started run on 2026/06/19 at 18:52:23.598     
   ID    Z sym.   atoms
    1    6 C      1-11, 13, 18, 20, 22-25, 29, 31, 33, 34, 36-41, 43-50,
                  53-57, 59, 64-69
    2    8 O      12, 14-17, 19, 21, 26-28, 30, 32, 35, 42, 51, 52, 58, 60-63
    3    1 H      70-133

           -------------------------------------------------
          |                Calculation Setup                |
           -------------------------------------------------

          program call               : xtb PAPU-0074/conf05.xyz --gfn 2 --alpb octanol --chrg 0 --uhf 0 --namespace PAPU-0074/conf05_octanol
          hostname                   : cpu10
          calculation namespace      : PAPU-0074/conf05_octanol
          coordinate file            : PAPU-0074/conf05.xyz
          omp threads                :                    16


           -------------------------------------------------
          |                 G F N 2 - x T B                 |
           -------------------------------------------------

        Reference                      10.1021/acs.jctc.8b01176
      * Hamiltonian:
        H0-scaling (s, p, d)           1.850000    2.230000    2.230000
        zeta-weighting                 0.500000
      * Dispersion:
        s8                             2.700000
        a1                             0.520000
        a2                             5.000000
        s9                             5.000000
      * Repulsion:
        kExp                           1.500000    1.000000
        rExp                           1.000000
      * Coulomb:
        alpha                          2.000000
        third order                    shell-resolved
        anisotropic                    true
        a3                             3.000000
        a5                             4.000000
        cn-shift                       1.200000
        cn-exp                         4.000000
        max-rad                        5.000000

      * Solvation model:               ALPB
        Solvent                        octanol
        Parameter file                 internal GFN2-xTB/ALPB
        Dielectric constant                9.8629E+00
        Reference state                gsolv [1 M gas/solution]
        Free energy shift                  2.3397E-03 Eh       1.4682E+00 kcal/mol
        Temperature                        2.9815E+02 K
        Density                            8.3000E-01 kg/L
        Solvent mass                       1.3023E+02 g/mol
        Interaction kernel             P16
        Born radius scaling (c1)           1.5898E+00
        Born radii integrator          GBOBC
        Born offset                        0.0000E+00 a0       0.0000E+00 AA
        H-bond correction              true
        Ion screening                  false
        Surface tension                    1.0000E-05 Eh       1.5569E+01 dyn/cm
        Grid points                               230 per atom

          ...................................................
          :                      SETUP                      :
          :.................................................:
          :  # basis functions                 340          :
          :  # atomic orbitals                 340          :
          :  # shells                          202          :
          :  # electrons                       382          :
          :  max. iterations                   250          :
          :  Hamiltonian                  GFN2-xTB          :
          :  restarted?                      false          :
          :  GBSA solvation                   true          :
          :  PC potential                    false          :
          :  electronic temp.          300.0000000     K    :
          :  accuracy                    1.0000000          :
          :  -> integral cutoff          0.2500000E+02      :
          :  -> integral neglect         0.1000000E-07      :
          :  -> SCF convergence          0.1000000E-05 Eh   :
          :  -> wf. convergence          0.1000000E-03 e    :
          :  Broyden damping             0.4000000          :
          :  net charge                          0          :
          :  unpaired electrons                  0          :
          ...................................................

 iter      E             dE          RMSdq      gap      omega  full diag
   1   -222.9068676 -0.222907E+03  0.459E+00    2.40       0.0  T
   2   -223.1466589 -0.239791E+00  0.251E+00    1.79       1.0  T
   3   -223.1321558  0.145031E-01  0.108E+00    1.89       1.0  T
   4   -223.1688710 -0.367151E-01  0.311E-01    1.68       1.0  T
   5   -223.1742175 -0.534658E-02  0.130E-01    1.66       1.0  T
   6   -223.1748767 -0.659143E-03  0.641E-02    1.68       1.0  T
   7   -223.1750007 -0.124049E-03  0.292E-02    1.69       1.0  T
   8   -223.1750335 -0.327272E-04  0.122E-02    1.68       1.0  T
   9   -223.1750393 -0.586526E-05  0.543E-03    1.69       1.6  T
  10   -223.1750405 -0.118639E-05  0.287E-03    1.68       3.0  T
  11   -223.1750408 -0.291759E-06  0.135E-03    1.68       6.4  T
  12   -223.1750408 -0.347324E-07  0.607E-04    1.68      14.3  T
  13   -223.1750409 -0.154380E-07  0.280E-04    1.68      31.0  T

   *** convergence criteria satisfied after 13 iterations ***

         #    Occupation            Energy/Eh            Energy/eV
      -------------------------------------------------------------
         1        2.0000           -0.7702997             -20.9609
       ...           ...                  ...                  ...
       185        2.0000           -0.4158706             -11.3164
       186        2.0000           -0.4125530             -11.2261
       187        2.0000           -0.4120110             -11.2114
       188        2.0000           -0.4075009             -11.0887
       189        2.0000           -0.4023487             -10.9485
       190        2.0000           -0.3867834             -10.5249
       191        2.0000           -0.3765951             -10.2477 (HOMO)
       192                         -0.3147084              -8.5637 (LUMO)
       193                         -0.2840519              -7.7294
       194                         -0.2471346              -6.7249
       195                         -0.2355134              -6.4086
       196                         -0.2346273              -6.3845
       ...                                ...                  ...
       340                          0.6697018              18.2235
      -------------------------------------------------------------
                  HL-Gap            0.0618867 Eh            1.6840 eV
             Fermi-level           -0.3456517 Eh           -9.4057 eV

 SCC (total)                   0 d,  0 h,  0 min,  0.223 sec
 SCC setup                      ...        0 min,  0.003 sec (  1.133%)
 Dispersion                     ...        0 min,  0.003 sec (  1.499%)
 classical contributions        ...        0 min,  0.000 sec (  0.088%)
 integral evaluation            ...        0 min,  0.010 sec (  4.383%)
 iterations                     ...        0 min,  0.176 sec ( 78.821%)
 molecular gradient             ...        0 min,  0.031 sec ( 13.746%)
 printout                       ...        0 min,  0.001 sec (  0.312%)

         :::::::::::::::::::::::::::::::::::::::::::::::::::::
         ::                     SUMMARY                     ::
         :::::::::::::::::::::::::::::::::::::::::::::::::::::
         :: total energy            -220.856455914856 Eh    ::
         :: total w/o Gsasa/hb      -220.784217073093 Eh    ::
         :: gradient norm              0.113833166392 Eh/a0 ::
         :: HOMO-LUMO gap              1.684022304655 eV    ::
         ::.................................................::
         :: SCC energy              -223.162280633054 Eh    ::
         :: -> isotropic ES            0.531406491003 Eh    ::
         :: -> anisotropic ES         -0.024437614919 Eh    ::
         :: -> anisotropic XC          0.013891249008 Eh    ::
         :: -> dispersion             -0.180460552522 Eh    ::
         :: -> Gsolv                  -0.103906488478 Eh    ::
         ::    -> Gelec               -0.031667646715 Eh    ::
         ::    -> Gsasa               -0.026742420635 Eh    ::
         ::    -> Ghb                 -0.047836090504 Eh    ::
         ::    -> Gshift               0.002339669376 Eh    ::
         :: repulsion energy           2.305824718197 Eh    ::
         :: add. restraining           0.000000000000 Eh    ::
         :: total charge              -0.000000000000 e     ::
         :::::::::::::::::::::::::::::::::::::::::::::::::::::

           -------------------------------------------------
          |                Property Printout                |
           -------------------------------------------------

    * Orbital Energies and Occupations

         #    Occupation            Energy/Eh            Energy/eV
      -------------------------------------------------------------
         1        2.0000           -0.7702997             -20.9609
       ...           ...                  ...                  ...
       179        2.0000           -0.4253231             -11.5736
       180        2.0000           -0.4217182             -11.4755
       181        2.0000           -0.4204944             -11.4422
       182        2.0000           -0.4189362             -11.3998
       183        2.0000           -0.4174514             -11.3594
       184        2.0000           -0.4171281             -11.3506
       185        2.0000           -0.4158706             -11.3164
       186        2.0000           -0.4125530             -11.2261
       187        2.0000           -0.4120110             -11.2114
       188        2.0000           -0.4075009             -11.0887
       189        2.0000           -0.4023487             -10.9485
       190        2.0000           -0.3867834             -10.5249
       191        2.0000           -0.3765951             -10.2477 (HOMO)
       192                         -0.3147084              -8.5637 (LUMO)
       193                         -0.2840519              -7.7294
       194                         -0.2471346              -6.7249
       195                         -0.2355134              -6.4086
       196                         -0.2346273              -6.3845
       197                         -0.2335546              -6.3553
       198                         -0.2268500              -6.1729
       199                         -0.2136131              -5.8127
       200                         -0.1724836              -4.6935
       201                         -0.1525115              -4.1500
       202                         -0.1121847              -3.0527
       ...                                ...                  ...
       340                          0.6697018              18.2235
      -------------------------------------------------------------
                  HL-Gap            0.0618867 Eh            1.6840 eV
             Fermi-level           -0.3456517 Eh           -9.4057 eV

     #   Z          covCN         q      C6AA      α(0)
     1   6 C        2.839     0.142    24.893     8.176
     2   6 C        2.974    -0.027    28.664     8.782
     3   6 C        2.964    -0.001    28.050     8.687
     4   6 C        2.928    -0.097    30.449     9.049
     5   6 C        2.836     0.149    24.758     8.154
     6   6 C        2.922    -0.103    30.595     9.071
     7   6 C        3.736     0.108    18.894     6.203
     8   6 C        3.723     0.089    19.213     6.260
     9   6 C        3.767     0.116    18.717     6.166
    10   6 C        3.758     0.088    19.177     6.244
    11   6 C        3.733     0.095    19.095     6.237
    12   8 O        1.692    -0.343    19.770     6.003
    13   6 C        3.682     0.062    19.734     6.362
    14   8 O        1.653    -0.498    22.843     6.452
    15   8 O        1.651    -0.486    22.593     6.416
    16   8 O        1.698    -0.326    19.446     5.954
    17   8 O        1.701    -0.315    19.250     5.924
    18   6 C        3.675     0.073    19.573     6.339
    19   8 O        1.653    -0.470    22.254     6.368
    20   6 C        3.653     0.250    17.007     5.922
    21   8 O        1.696    -0.352    19.928     6.027
    22   6 C        3.743     0.112    18.817     6.188
    23   6 C        3.722     0.091    19.184     6.255
    24   6 C        3.723     0.096    19.090     6.239
    25   6 C        3.732     0.084    19.269     6.266
    26   8 O        1.652    -0.472    22.297     6.374
    27   8 O        1.697    -0.328    19.498     5.962
    28   8 O        1.653    -0.483    22.531     6.408
    29   6 C        3.724     0.064    19.606     6.323
    30   8 O        1.703    -0.262    18.344     5.783
    31   6 C        2.745     0.356    20.954     7.495
    32   8 O        0.857    -0.452    22.746     6.394
    33   6 C        2.733     0.354    20.996     7.502
    34   6 C        2.895    -0.090    30.258     9.019
    35   8 O        0.857    -0.452    22.757     6.396
    36   6 C        2.901     0.002    27.987     8.674
    37   6 C        2.898    -0.044    29.094     8.844
    38   6 C        2.894    -0.023    28.576     8.764
    39   6 C        3.807    -0.073    21.884     6.659
    40   6 C        3.727     0.120    18.711     6.176
    41   6 C        2.895    -0.072    29.805     8.951
    42   8 O        1.652    -0.503    22.950     6.467
    43   6 C        2.898    -0.049    29.214     8.862
    44   6 C        2.898    -0.055    29.363     8.885
    45   6 C        2.896    -0.037    28.923     8.818
    46   6 C        3.805    -0.069    21.809     6.648
    47   6 C        3.800    -0.063    21.716     6.635
    48   6 C        3.800    -0.058    21.610     6.619
    49   6 C        3.799    -0.059    21.638     6.623
    50   6 C        3.751    -0.101    22.489     6.763
    51   8 O        1.656    -0.441    21.658     6.282
    52   8 O        1.657    -0.435    21.549     6.267
    53   6 C        3.628     0.225    17.455     6.018
    54   6 C        3.723     0.085    19.265     6.268
    55   6 C        3.724     0.093    19.149     6.249
    56   6 C        3.722     0.087    19.248     6.266
    57   6 C        3.739     0.091    19.152     6.244
    58   8 O        1.696    -0.348    19.853     6.016
    59   6 C        3.674     0.068    19.669     6.355
    60   8 O        1.654    -0.482    22.506     6.404
    61   8 O        1.654    -0.479    22.455     6.397
    62   8 O        1.652    -0.480    22.467     6.399
    63   8 O        1.654    -0.483    22.528     6.407
    64   6 C        2.974    -0.022    28.542     8.763
    65   6 C        2.929    -0.022    28.555     8.763
    66   6 C        2.922    -0.026    28.656     8.779
    67   6 C        2.925    -0.024    28.595     8.769
    68   6 C        2.922    -0.030    28.742     8.792
    69   6 C        2.929    -0.025    28.630     8.775
    70   1 H        0.926     0.062     2.173     2.305
    71   1 H        0.926     0.076     2.023     2.224
    72   1 H        0.924     0.036     2.500     2.473
    73   1 H        0.923     0.073     2.052     2.240
    74   1 H        0.924     0.021     2.715     2.577
    75   1 H        0.923     0.085     1.933     2.174
    76   1 H        0.924     0.031     2.571     2.508
    77   1 H        0.924     0.076     2.021     2.223
    78   1 H        0.924     0.036     2.498     2.472
    79   1 H        0.804     0.345     0.601     1.218
    80   1 H        0.802     0.336     0.623     1.240
    81   1 H        0.924     0.044     2.394     2.419
    82   1 H        0.924     0.071     2.073     2.252
    83   1 H        0.803     0.336     0.621     1.238
    84   1 H        0.924     0.009     2.900     2.663
    85   1 H        0.923     0.033     2.541     2.493
    86   1 H        0.923     0.055     2.258     2.350
    87   1 H        0.923     0.033     2.548     2.496
    88   1 H        0.924     0.060     2.193     2.316
    89   1 H        0.802     0.347     0.594     1.211
    90   1 H        0.803     0.368     0.547     1.162
    91   1 H        0.924     0.102     1.766     2.078
    92   1 H        0.924     0.088     1.897     2.154
    93   1 H        0.926     0.083     1.949     2.183
    94   1 H        0.926     0.090     1.879     2.143
    95   1 H        0.926     0.083     1.946     2.182
    96   1 H        0.926     0.059     2.214     2.327
    97   1 H        0.924     0.064     2.154     2.295
    98   1 H        0.924     0.073     2.053     2.241
    99   1 H        0.923     0.027     2.631     2.537
   100   1 H        0.926     0.056     2.243     2.342
   101   1 H        0.804     0.343     0.605     1.222
   102   1 H        0.926     0.045     2.386     2.415
   103   1 H        0.926     0.048     2.341     2.392
   104   1 H        0.926     0.020     2.731     2.584
   105   1 H        0.924     0.057     2.236     2.339
   106   1 H        0.924     0.060     2.202     2.321
   107   1 H        0.924     0.029     2.600     2.522
   108   1 H        0.924     0.040     2.451     2.448
   109   1 H        0.924     0.037     2.486     2.466
   110   1 H        0.924     0.015     2.810     2.622
   111   1 H        0.924     0.037     2.490     2.468
   112   1 H        0.924     0.032     2.564     2.504
   113   1 H        0.924     0.042     2.424     2.435
   114   1 H        0.925     0.009     2.900     2.663
   115   1 H        0.924     0.043     2.411     2.428
   116   1 H        0.803     0.364     0.557     1.172
   117   1 H        0.804     0.360     0.566     1.182
   118   1 H        0.923     0.059     2.210     2.325
   119   1 H        0.924     0.039     2.460     2.453
   120   1 H        0.923     0.041     2.433     2.440
   121   1 H        0.923     0.060     2.200     2.320
   122   1 H        0.923     0.045     2.382     2.414
   123   1 H        0.924     0.079     1.993     2.208
   124   1 H        0.924     0.056     2.249     2.345
   125   1 H        0.803     0.367     0.551     1.166
   126   1 H        0.804     0.365     0.555     1.171
   127   1 H        0.802     0.339     0.615     1.232
   128   1 H        0.803     0.353     0.582     1.198
   129   1 H        0.926     0.068     2.113     2.273
   130   1 H        0.926     0.059     2.209     2.324
   131   1 H        0.926     0.065     2.146     2.291
   132   1 H        0.926     0.066     2.132     2.283
   133   1 H        0.926     0.058     2.222     2.331

 Mol. C6AA /au·bohr⁶  :     172482.577680
 Mol. C8AA /au·bohr⁸  :    3925223.686825
 Mol. α(0) /au        :        623.689367


Wiberg/Mayer (AO) data.
largest (>0.10) Wiberg bond orders for each atom

 ---------------------------------------------------------------------------
     #   Z sym  total        # sym  WBO       # sym  WBO       # sym  WBO
 ---------------------------------------------------------------------------
     1   6 C    3.941 --     6 C    1.390     2 C    1.335    51 O    1.071
     2   6 C    3.976 --     3 C    1.394     1 C    1.335     7 C    0.993
     3   6 C    3.987 --     4 C    1.424     2 C    1.394    13 C    0.997
     4   6 C    3.980 --     3 C    1.424     5 C    1.363    70 H    0.962
     5   6 C    3.944 --     6 C    1.378     4 C    1.363    52 O    1.074
     6   6 C    3.977 --     1 C    1.390     5 C    1.378    71 H    0.961
     7   6 C    3.938 --     2 C    0.993    72 H    0.955    12 O    0.948
                             8 C    0.945
     8   6 C    3.952 --    15 O    0.997     9 C    0.969    73 H    0.947
                             7 C    0.945
     9   6 C    3.932 --    10 C    0.969     8 C    0.969    74 H    0.940
                            17 O    0.938
    10   6 C    3.931 --     9 C    0.969    11 C    0.958    75 H    0.954
                            16 O    0.953
    11   6 C    3.950 --    18 C    0.979    12 O    0.970    10 C    0.958
                            76 H    0.946
    12   8 O    2.065 --    11 C    0.970     7 C    0.948
    13   6 C    3.947 --     3 C    0.997    14 O    0.983    78 H    0.968
                            77 H    0.951
    14   8 O    1.937 --    13 C    0.983    79 H    0.867
    15   8 O    1.926 --     8 C    0.997    80 H    0.840
    16   8 O    2.102 --    20 C    0.986    10 C    0.953
    17   8 O    2.223 --    33 C    1.044     9 C    0.938    35 O    0.133
    18   6 C    3.960 --    19 O    1.015    11 C    0.979    82 H    0.967
                            81 H    0.964
    19   8 O    1.941 --    18 C    1.015    83 H    0.839
    20   6 C    3.929 --    16 O    0.986    21 O    0.959    25 C    0.955
                            84 H    0.932
    21   8 O    2.065 --    20 C    0.959    22 C    0.951
    22   6 C    3.938 --    29 C    0.983    23 C    0.968    21 O    0.951
                            85 H    0.951
    23   6 C    3.966 --    28 O    1.009    22 C    0.968    24 C    0.964
                            86 H    0.951
    24   6 C    3.965 --    26 O    1.004    25 C    0.965    23 C    0.964
                            87 H    0.952
    25   6 C    3.944 --    24 C    0.965    27 O    0.960    20 C    0.955
                            88 H    0.951
    26   8 O    1.948 --    24 C    1.004    89 H    0.822
    27   8 O    2.106 --    53 C    0.984    25 C    0.960
    28   8 O    1.922 --    23 C    1.009    90 H    0.840
    29   6 C    3.922 --    22 C    0.983    30 O    0.960    92 H    0.959
                            91 H    0.952
    30   8 O    2.299 --    31 C    1.103    29 C    0.960    32 O    0.154
    31   6 C    3.897 --    32 O    1.686    30 O    1.103    64 C    1.009
    32   8 O    2.019 --    31 C    1.686    30 O    0.154
    33   6 C    3.899 --    35 O    1.663    34 C    1.086    17 O    1.044
    34   6 C    3.973 --    36 C    1.726    33 C    1.086    93 H    0.958
    35   8 O    2.017 --    33 C    1.663    17 O    0.133
    36   6 C    3.970 --    34 C    1.726    37 C    1.137    94 H    0.951
    37   6 C    3.985 --    38 C    1.803    36 C    1.137    95 H    0.952
    38   6 C    3.981 --    37 C    1.803    39 C    1.039    96 H    0.955
    39   6 C    3.985 --    38 C    1.039    98 H    0.966    97 H    0.961
                            40 C    0.947
    40   6 C    3.946 --    41 C    1.006    42 O    0.975    99 H    0.957
                            39 C    0.947
    41   6 C    3.985 --    43 C    1.835    40 C    1.006   100 H    0.963
                            45 C    0.124
    42   8 O    1.912 --    40 C    0.975   101 H    0.867
    43   6 C    3.989 --    41 C    1.835    44 C    1.120   102 H    0.952
    44   6 C    3.989 --    45 C    1.831    43 C    1.120   103 H    0.962
    45   6 C    3.983 --    44 C    1.831    46 C    1.033   104 H    0.958
                            41 C    0.124
    46   6 C    3.996 --    45 C    1.033    47 C    1.007   105 H    0.957
                           106 H    0.954
    47   6 C    3.996 --    48 C    1.008    46 C    1.007   108 H    0.977
                           107 H    0.977
    48   6 C    3.995 --    47 C    1.008    49 C    1.007   109 H    0.976
                           110 H    0.970
    49   6 C    3.996 --    50 C    1.021    48 C    1.007   111 H    0.977
                           112 H    0.973
    50   6 C    3.994 --    49 C    1.021   115 H    0.986   113 H    0.981
                           114 H    0.976
    51   8 O    2.083 --     1 C    1.071   116 H    0.847
    52   8 O    2.083 --     5 C    1.074   117 H    0.852
    53   6 C    3.915 --    27 O    0.984    58 O    0.952    54 C    0.952
                           118 H    0.945
    54   6 C    3.960 --    62 O    1.001    55 C    0.967    53 C    0.952
                           119 H    0.948
    55   6 C    3.963 --    61 O    1.003    56 C    0.968    54 C    0.967
                           120 H    0.959
    56   6 C    3.962 --    60 O    1.000    57 C    0.968    55 C    0.968
                           121 H    0.957
    57   6 C    3.931 --    59 C    0.981    56 C    0.968   122 H    0.956
                            58 O    0.941
    58   8 O    2.082 --    53 C    0.952    57 C    0.941
    59   6 C    3.959 --    63 O    1.017    57 C    0.981   123 H    0.963
                           124 H    0.962
    60   8 O    1.944 --    56 C    1.000   125 H    0.837
    61   8 O    1.935 --    55 C    1.003   126 H    0.849
    62   8 O    1.933 --    54 C    1.001   127 H    0.846
    63   8 O    1.925 --    59 C    1.017   128 H    0.835
    64   6 C    3.982 --    65 C    1.383    69 C    1.382    31 C    1.009
                            67 C    0.101
    65   6 C    3.985 --    66 C    1.450    64 C    1.383   129 H    0.957
                            68 C    0.108
    66   6 C    3.989 --    65 C    1.450    67 C    1.435   130 H    0.968
                            69 C    0.108
    67   6 C    3.988 --    66 C    1.435    68 C    1.433   131 H    0.968
                            64 C    0.101
    68   6 C    3.990 --    69 C    1.452    67 C    1.433   132 H    0.967
                            65 C    0.108
    69   6 C    3.988 --    68 C    1.452    64 C    1.382   133 H    0.967
                            66 C    0.108
    70   1 H    0.996 --     4 C    0.962
    71   1 H    0.993 --     6 C    0.961
    72   1 H    0.998 --     7 C    0.955
    73   1 H    0.995 --     8 C    0.947
    74   1 H    0.999 --     9 C    0.940
    75   1 H    0.992 --    10 C    0.954
    76   1 H    0.999 --    11 C    0.946
    77   1 H    0.994 --    13 C    0.951
    78   1 H    0.998 --    13 C    0.968
    79   1 H    0.881 --    14 O    0.867
    80   1 H    0.887 --    15 O    0.840
    81   1 H    0.997 --    18 C    0.964
    82   1 H    0.995 --    18 C    0.967
    83   1 H    0.887 --    19 O    0.839
    84   1 H    1.000 --    20 C    0.932
    85   1 H    0.999 --    22 C    0.951
    86   1 H    0.997 --    23 C    0.951
    87   1 H    0.999 --    24 C    0.952
    88   1 H    0.996 --    25 C    0.951
    89   1 H    0.879 --    26 O    0.822
    90   1 H    0.864 --    28 O    0.840
    91   1 H    0.989 --    29 C    0.952
    92   1 H    0.991 --    29 C    0.959
    93   1 H    0.993 --    34 C    0.958
    94   1 H    0.992 --    36 C    0.951
    95   1 H    0.992 --    37 C    0.952
    96   1 H    0.997 --    38 C    0.955
    97   1 H    0.994 --    39 C    0.961
    98   1 H    0.994 --    39 C    0.966
    99   1 H    0.999 --    40 C    0.957
   100   1 H    0.997 --    41 C    0.963
   101   1 H    0.882 --    42 O    0.867
   102   1 H    0.998 --    43 C    0.952
   103   1 H    0.997 --    44 C    0.962
   104   1 H    1.000 --    45 C    0.958
   105   1 H    0.996 --    46 C    0.957
   106   1 H    0.996 --    46 C    0.954
   107   1 H    0.999 --    47 C    0.977
   108   1 H    0.998 --    47 C    0.977
   109   1 H    0.999 --    48 C    0.976
   110   1 H    1.000 --    48 C    0.970
   111   1 H    0.998 --    49 C    0.977
   112   1 H    0.999 --    49 C    0.973
   113   1 H    0.998 --    50 C    0.981
   114   1 H    1.000 --    50 C    0.976
   115   1 H    0.998 --    50 C    0.986
   116   1 H    0.867 --    51 O    0.847
   117   1 H    0.870 --    52 O    0.852
   118   1 H    0.996 --    53 C    0.945
   119   1 H    0.998 --    54 C    0.948
   120   1 H    0.998 --    55 C    0.959
   121   1 H    0.996 --    56 C    0.957
   122   1 H    0.998 --    57 C    0.956
   123   1 H    0.994 --    59 C    0.963
   124   1 H    0.996 --    59 C    0.962
   125   1 H    0.866 --    60 O    0.837
   126   1 H    0.867 --    61 O    0.849
   127   1 H    0.885 --    62 O    0.846
   128   1 H    0.875 --    63 O    0.835
   129   1 H    0.995 --    65 C    0.957
   130   1 H    0.996 --    66 C    0.968
   131   1 H    0.995 --    67 C    0.968
   132   1 H    0.995 --    68 C    0.967
   133   1 H    0.997 --    69 C    0.967
 ---------------------------------------------------------------------------

Topologies differ in total number of bonds
Writing topology from bond orders to xtbtopo.mol

molecular dipole:
                 x           y           z       tot (Debye)
 q only:        0.034      -0.964      -1.182
   full:        0.058      -0.833      -1.701       4.818
molecular quadrupole (traceless):
                xx          xy          yy          xz          yz          zz
 q only:       46.187       8.656      -1.734      -1.901     -25.324     -44.453
  q+dip:       29.487      12.254      13.313       0.648     -31.943     -42.801
   full:       28.991      11.157       7.516       0.261     -31.885     -36.507


           -------------------------------------------------
          | TOTAL ENERGY             -220.856455914856 Eh   |
          | GRADIENT NORM               0.113833166392 Eh/α |
          | HOMO-LUMO GAP               1.684022304655 eV   |
           -------------------------------------------------

------------------------------------------------------------------------
 * finished run on 2026/06/19 at 18:52:23.875     
------------------------------------------------------------------------
 total:
 * wall-time:     0 d,  0 h,  0 min,  0.277 sec
 *  cpu-time:     0 d,  0 h,  0 min,  4.157 sec
 * ratio c/w:    15.022 speedup
 SCF:
 * wall-time:     0 d,  0 h,  0 min,  0.225 sec
 *  cpu-time:     0 d,  0 h,  0 min,  3.510 sec
 * ratio c/w:    15.631 speedup

normal termination of xtb
