      -----------------------------------------------------------      
     |                   =====================                   |     
     |                           x T B                           |     
     |                   =====================                   |     
     |                         S. Grimme                         |     
     |          Mulliken Center for Theoretical Chemistry        |     
     |                    University of Bonn                     |     
      -----------------------------------------------------------      

   * xtb version 6.7.1 (edcfbbe) compiled by 'albert@albert-system' on 2024-07-22

   xtb is free software: you can redistribute it and/or modify it under
   the terms of the GNU Lesser General Public License as published by
   the Free Software Foundation, either version 3 of the License, or
   (at your option) any later version.
   
   xtb is distributed in the hope that it will be useful,
   but WITHOUT ANY WARRANTY; without even the implied warranty of
   MERCHANTABILITY or FITNESS FOR A PARTICULAR PURPOSE.  See the
   GNU Lesser General Public License for more details.
   
   Cite this work as:
   * C. Bannwarth, E. Caldeweyher, S. Ehlert, A. Hansen, P. Pracht,
     J. Seibert, S. Spicher, S. Grimme, WIREs Comput. Mol. Sci., 2020, 11,
     e01493. DOI: 10.1002/wcms.1493
   
   for GFN2-xTB:
   * C. Bannwarth, S. Ehlert and S. Grimme., J. Chem. Theory Comput., 2019,
     15, 1652-1671. DOI: 10.1021/acs.jctc.8b01176
   for GFN1-xTB:
   * S. Grimme, C. Bannwarth, P. Shushkov, J. Chem. Theory Comput., 2017,
     13, 1989-2009. DOI: 10.1021/acs.jctc.7b00118
   for GFN0-xTB:
   * P. Pracht, E. Caldeweyher, S. Ehlert, S. Grimme, ChemRxiv, 2019, preprint.
     DOI: 10.26434/chemrxiv.8326202.v1
   for GFN-FF:
   * S. Spicher and S. Grimme, Angew. Chem. Int. Ed., 2020, 59, 15665-15673.
     DOI: 10.1002/anie.202004239
   
   for ALPB and GBSA implicit solvation:
   * S. Ehlert, M. Stahn, S. Spicher, S. Grimme, J. Chem. Theory Comput.,
     2021, 17, 4250-4261. DOI: 10.1021/acs.jctc.1c00471
   
   for ddCOSMO and CPCM-X implicit solvation:
   * M. Stahn, S. Ehlert, S. Grimme, J. Phys. Chem. A,
     2023, XX, XXXX-XXXX. DOI: 10.1021/acs.jpca.3c04382
   
   for DFT-D4:
   * E. Caldeweyher, C. Bannwarth and S. Grimme, J. Chem. Phys., 2017,
     147, 034112. DOI: 10.1063/1.4993215
   * E. Caldeweyher, S. Ehlert, A. Hansen, H. Neugebauer, S. Spicher,
     C. Bannwarth and S. Grimme, J. Chem. Phys., 2019, 150, 154122.
     DOI: 10.1063/1.5090222
   * E. Caldeweyher, J.-M. Mewes, S. Ehlert and S. Grimme, Phys. Chem. Chem. Phys.
     2020, 22, 8499-8512. DOI: 10.1039/D0CP00502A
   
   for sTDA-xTB:
   * S. Grimme and C. Bannwarth, J. Chem. Phys., 2016, 145, 054103.
     DOI: 10.1063/1.4959605
   
   in the mass-spec context:
   * V. Asgeirsson, C. Bauer and S. Grimme, Chem. Sci., 2017, 8, 4879.
     DOI: 10.1039/c7sc00601b
   * J. Koopman and S. Grimme, ACS Omega 2019, 4, 12, 15120-15133.
     DOI: 10.1021/acsomega.9b02011
   
   for metadynamics refer to:
   * S. Grimme, J. Chem. Theory Comput., 2019, 155, 2847-2862
     DOI: 10.1021/acs.jctc.9b00143
   
   for SPH calculations refer to:
   * S. Spicher and S. Grimme, J. Chem. Theory Comput., 2021, 17, 1701-1714
     DOI: 10.1021/acs.jctc.0c01306
   
   for ONIOM refer to:
   * C. Plett, A. Katbashev, S. Ehlert, S. Grimme, M. Bursch,
     Phys. Chem. Chem. Phys., 2023, 25, 17860-17868. DOI: 10.1039/D3CP02178E
   
   for DIPRO refer to:
   * J. Kohn, N. Gildemeister, S. Grimme, D. Fazzi, A. Hansen,
     J. Chem. Phys., 2023, just accepted.
   
   for PTB refer to:
   * S. Grimme, M. Mueller, A. Hansen, J. Chem. Phys., 2023, 158, 124111.
     DOI: 10.1063/5.0137838
   
   with help from (in alphabetical order)
   P. Atkinson, C. Bannwarth, F. Bohle, G. Brandenburg, E. Caldeweyher
   M. Checinski, S. Dohm, S. Ehlert, S. Ehrlich, I. Gerasimov, C. Hölzer
   A. Katbashev, J. Kohn, J. Koopman, C. Lavigne, S. Lehtola, F. März, M. Müller,
   F. Musil, H. Neugebauer, J. Pisarek, C. Plett, P. Pracht, F. Pultar,
   J. Seibert, P. Shushkov, S. Spicher, M. Stahn, M. Steiner, T. Strunk,
   J. Stückrath, T. Rose, and J. Unsleber
   
 * started run on 2026/06/19 at 18:52:21.562     
   ID    Z sym.   atoms
    1    6 C      1-11, 13, 18, 20, 22-25, 29, 31, 33, 34, 36-41, 43-50,
                  53-57, 59, 64-69
    2    8 O      12, 14-17, 19, 21, 26-28, 30, 32, 35, 42, 51, 52, 58, 60-63
    3    1 H      70-133

           -------------------------------------------------
          |                Calculation Setup                |
           -------------------------------------------------

          program call               : xtb PAPU-0074/conf02.xyz --gfn 2 --alpb water --chrg 0 --uhf 0 --namespace PAPU-0074/conf02_water
          hostname                   : cpu10
          calculation namespace      : PAPU-0074/conf02_water
          coordinate file            : PAPU-0074/conf02.xyz
          omp threads                :                    16


           -------------------------------------------------
          |                 G F N 2 - x T B                 |
           -------------------------------------------------

        Reference                      10.1021/acs.jctc.8b01176
      * Hamiltonian:
        H0-scaling (s, p, d)           1.850000    2.230000    2.230000
        zeta-weighting                 0.500000
      * Dispersion:
        s8                             2.700000
        a1                             0.520000
        a2                             5.000000
        s9                             5.000000
      * Repulsion:
        kExp                           1.500000    1.000000
        rExp                           1.000000
      * Coulomb:
        alpha                          2.000000
        third order                    shell-resolved
        anisotropic                    true
        a3                             3.000000
        a5                             4.000000
        cn-shift                       1.200000
        cn-exp                         4.000000
        max-rad                        5.000000

      * Solvation model:               ALPB
        Solvent                        water
        Parameter file                 internal GFN2-xTB/ALPB
        Dielectric constant                8.0200E+01
        Reference state                gsolv [1 M gas/solution]
        Free energy shift                  1.0808E-03 Eh       6.7819E-01 kcal/mol
        Temperature                        2.9815E+02 K
        Density                            1.0000E+00 kg/L
        Solvent mass                       1.8000E+01 g/mol
        Interaction kernel             P16
        Born radius scaling (c1)           1.4744E+00
        Born radii integrator          GBOBC
        Born offset                        0.0000E+00 a0       0.0000E+00 AA
        H-bond correction              true
        Ion screening                  false
        Surface tension                    1.0000E-05 Eh       1.5569E+01 dyn/cm
        Grid points                               230 per atom

          ...................................................
          :                      SETUP                      :
          :.................................................:
          :  # basis functions                 340          :
          :  # atomic orbitals                 340          :
          :  # shells                          202          :
          :  # electrons                       382          :
          :  max. iterations                   250          :
          :  Hamiltonian                  GFN2-xTB          :
          :  restarted?                      false          :
          :  GBSA solvation                   true          :
          :  PC potential                    false          :
          :  electronic temp.          300.0000000     K    :
          :  accuracy                    1.0000000          :
          :  -> integral cutoff          0.2500000E+02      :
          :  -> integral neglect         0.1000000E-07      :
          :  -> SCF convergence          0.1000000E-05 Eh   :
          :  -> wf. convergence          0.1000000E-03 e    :
          :  Broyden damping             0.4000000          :
          :  net charge                          0          :
          :  unpaired electrons                  0          :
          ...................................................

 iter      E             dE          RMSdq      gap      omega  full diag
   1   -222.8909293 -0.222891E+03  0.455E+00    2.57       0.0  T
   2   -223.1273029 -0.236374E+00  0.247E+00    2.05       1.0  T
   3   -223.1113477  0.159552E-01  0.104E+00    2.09       1.0  T
   4   -223.1471898 -0.358420E-01  0.342E-01    1.87       1.0  T
   5   -223.1538428 -0.665304E-02  0.139E-01    1.85       1.0  T
   6   -223.1545746 -0.731853E-03  0.708E-02    1.86       1.0  T
   7   -223.1547218 -0.147154E-03  0.323E-02    1.86       1.0  T
   8   -223.1547584 -0.366321E-04  0.147E-02    1.86       1.0  T
   9   -223.1547655 -0.704541E-05  0.707E-03    1.86       1.2  T
  10   -223.1547669 -0.142649E-05  0.464E-03    1.86       1.9  T
  11   -223.1547679 -0.103525E-05  0.214E-03    1.86       4.1  T
  12   -223.1547681 -0.130974E-06  0.897E-04    1.86       9.7  T
  13   -223.1547681 -0.358026E-07  0.413E-04    1.86      21.0  T

   *** convergence criteria satisfied after 13 iterations ***

         #    Occupation            Energy/Eh            Energy/eV
      -------------------------------------------------------------
         1        2.0000           -0.7693319             -20.9346
       ...           ...                  ...                  ...
       185        2.0000           -0.4123666             -11.2211
       186        2.0000           -0.4115825             -11.1997
       187        2.0000           -0.4089177             -11.1272
       188        2.0000           -0.3988529             -10.8533
       189        2.0000           -0.3973787             -10.8132
       190        2.0000           -0.3820613             -10.3964
       191        2.0000           -0.3708148             -10.0904 (HOMO)
       192                         -0.3025249              -8.2321 (LUMO)
       193                         -0.2834365              -7.7127
       194                         -0.2423010              -6.5933
       195                         -0.2322389              -6.3195
       196                         -0.2317865              -6.3072
       ...                                ...                  ...
       340                          0.6784520              18.4616
      -------------------------------------------------------------
                  HL-Gap            0.0682899 Eh            1.8583 eV
             Fermi-level           -0.3366699 Eh           -9.1613 eV

 SCC (total)                   0 d,  0 h,  0 min,  0.226 sec
 SCC setup                      ...        0 min,  0.003 sec (  1.390%)
 Dispersion                     ...        0 min,  0.004 sec (  1.580%)
 classical contributions        ...        0 min,  0.000 sec (  0.090%)
 integral evaluation            ...        0 min,  0.011 sec (  4.780%)
 iterations                     ...        0 min,  0.177 sec ( 78.229%)
 molecular gradient             ...        0 min,  0.031 sec ( 13.615%)
 printout                       ...        0 min,  0.001 sec (  0.300%)

         :::::::::::::::::::::::::::::::::::::::::::::::::::::
         ::                     SUMMARY                     ::
         :::::::::::::::::::::::::::::::::::::::::::::::::::::
         :: total energy            -220.835065043217 Eh    ::
         :: total w/o Gsasa/hb      -220.803083879488 Eh    ::
         :: gradient norm              0.114075681414 Eh/a0 ::
         :: HOMO-LUMO gap              1.858261625849 eV    ::
         ::.................................................::
         :: SCC energy              -223.142163603156 Eh    ::
         :: -> isotropic ES            0.547548226960 Eh    ::
         :: -> anisotropic ES         -0.019750530460 Eh    ::
         :: -> anisotropic XC          0.015892649111 Eh    ::
         :: -> dispersion             -0.178854850335 Eh    ::
         :: -> Gsolv                  -0.086878671662 Eh    ::
         ::    -> Gelec               -0.054897507933 Eh    ::
         ::    -> Gsasa                0.008924928528 Eh    ::
         ::    -> Ghb                 -0.041986851955 Eh    ::
         ::    -> Gshift               0.001080759698 Eh    ::
         :: repulsion energy           2.307098559939 Eh    ::
         :: add. restraining           0.000000000000 Eh    ::
         :: total charge              -0.000000000000 e     ::
         :::::::::::::::::::::::::::::::::::::::::::::::::::::

           -------------------------------------------------
          |                Property Printout                |
           -------------------------------------------------

    * Orbital Energies and Occupations

         #    Occupation            Energy/Eh            Energy/eV
      -------------------------------------------------------------
         1        2.0000           -0.7693319             -20.9346
       ...           ...                  ...                  ...
       179        2.0000           -0.4202727             -11.4362
       180        2.0000           -0.4199164             -11.4265
       181        2.0000           -0.4180583             -11.3759
       182        2.0000           -0.4169856             -11.3468
       183        2.0000           -0.4148565             -11.2888
       184        2.0000           -0.4139043             -11.2629
       185        2.0000           -0.4123666             -11.2211
       186        2.0000           -0.4115825             -11.1997
       187        2.0000           -0.4089177             -11.1272
       188        2.0000           -0.3988529             -10.8533
       189        2.0000           -0.3973787             -10.8132
       190        2.0000           -0.3820613             -10.3964
       191        2.0000           -0.3708148             -10.0904 (HOMO)
       192                         -0.3025249              -8.2321 (LUMO)
       193                         -0.2834365              -7.7127
       194                         -0.2423010              -6.5933
       195                         -0.2322389              -6.3195
       196                         -0.2317865              -6.3072
       197                         -0.2300561              -6.2601
       198                         -0.2220935              -6.0435
       199                         -0.2118660              -5.7652
       200                         -0.1646290              -4.4798
       201                         -0.1424036              -3.8750
       202                         -0.1075355              -2.9262
       ...                                ...                  ...
       340                          0.6784520              18.4616
      -------------------------------------------------------------
                  HL-Gap            0.0682899 Eh            1.8583 eV
             Fermi-level           -0.3366699 Eh           -9.1613 eV

     #   Z          covCN         q      C6AA      α(0)
     1   6 C        2.840     0.140    24.945     8.185
     2   6 C        2.974    -0.028    28.694     8.787
     3   6 C        2.964    -0.001    28.057     8.688
     4   6 C        2.928    -0.092    30.323     9.031
     5   6 C        2.836     0.145    24.841     8.168
     6   6 C        2.922    -0.098    30.462     9.051
     7   6 C        3.737     0.108    18.886     6.202
     8   6 C        3.724     0.091    19.171     6.252
     9   6 C        3.764     0.114    18.752     6.172
    10   6 C        3.761     0.093    19.083     6.227
    11   6 C        3.734     0.097    19.056     6.230
    12   8 O        1.693    -0.348    19.852     6.015
    13   6 C        3.682     0.067    19.663     6.350
    14   8 O        1.653    -0.510    23.106     6.489
    15   8 O        1.651    -0.490    22.679     6.429
    16   8 O        1.699    -0.322    19.376     5.943
    17   8 O        1.701    -0.302    19.030     5.890
    18   6 C        3.675     0.078    19.507     6.329
    19   8 O        1.653    -0.479    22.440     6.395
    20   6 C        3.655     0.249    17.019     5.923
    21   8 O        1.696    -0.370    20.265     6.078
    22   6 C        3.741     0.106    18.908     6.204
    23   6 C        3.722     0.087    19.247     6.265
    24   6 C        3.725     0.101    19.017     6.227
    25   6 C        3.741     0.093    19.109     6.237
    26   8 O        1.651    -0.468    22.216     6.363
    27   8 O        1.698    -0.322    19.379     5.943
    28   8 O        1.653    -0.468    22.207     6.361
    29   6 C        3.725     0.071    19.493     6.304
    30   8 O        1.703    -0.263    18.356     5.785
    31   6 C        2.746     0.355    20.973     7.499
    32   8 O        0.857    -0.465    23.032     6.434
    33   6 C        2.733     0.354    20.994     7.502
    34   6 C        2.896    -0.085    30.124     8.999
    35   8 O        0.858    -0.460    22.921     6.419
    36   6 C        2.904    -0.006    28.164     8.702
    37   6 C        2.898    -0.042    29.035     8.835
    38   6 C        2.896    -0.018    28.457     8.746
    39   6 C        3.807    -0.077    21.972     6.673
    40   6 C        3.727     0.118    18.743     6.181
    41   6 C        2.895    -0.066    29.644     8.927
    42   8 O        1.652    -0.512    23.147     6.495
    43   6 C        2.897    -0.047    29.170     8.855
    44   6 C        2.899    -0.053    29.325     8.879
    45   6 C        2.894    -0.037    28.931     8.819
    46   6 C        3.805    -0.067    21.782     6.644
    47   6 C        3.800    -0.062    21.693     6.631
    48   6 C        3.800    -0.055    21.561     6.611
    49   6 C        3.799    -0.057    21.599     6.617
    50   6 C        3.751    -0.095    22.375     6.746
    51   8 O        1.656    -0.441    21.659     6.283
    52   8 O        1.657    -0.452    21.884     6.315
    53   6 C        3.635     0.230    17.352     5.994
    54   6 C        3.723     0.091    19.174     6.253
    55   6 C        3.724     0.098    19.068     6.236
    56   6 C        3.722     0.093    19.140     6.248
    57   6 C        3.739     0.097    19.061     6.230
    58   8 O        1.695    -0.356    20.000     6.038
    59   6 C        3.674     0.072    19.595     6.343
    60   8 O        1.654    -0.492    22.725     6.435
    61   8 O        1.654    -0.494    22.770     6.442
    62   8 O        1.652    -0.484    22.545     6.410
    63   8 O        1.654    -0.499    22.877     6.457
    64   6 C        2.973    -0.020    28.490     8.755
    65   6 C        2.929    -0.019    28.487     8.753
    66   6 C        2.922    -0.025    28.624     8.774
    67   6 C        2.925    -0.022    28.552     8.763
    68   6 C        2.922    -0.029    28.718     8.788
    69   6 C        2.929    -0.023    28.569     8.766
    70   1 H        0.926     0.064     2.152     2.294
    71   1 H        0.926     0.074     2.046     2.237
    72   1 H        0.924     0.033     2.548     2.496
    73   1 H        0.923     0.071     2.071     2.250
    74   1 H        0.923     0.023     2.688     2.564
    75   1 H        0.923     0.085     1.927     2.171
    76   1 H        0.924     0.030     2.593     2.518
    77   1 H        0.924     0.068     2.106     2.270
    78   1 H        0.924     0.038     2.480     2.463
    79   1 H        0.804     0.357     0.572     1.188
    80   1 H        0.802     0.333     0.629     1.246
    81   1 H        0.924     0.046     2.370     2.408
    82   1 H        0.924     0.073     2.055     2.242
    83   1 H        0.803     0.335     0.624     1.241
    84   1 H        0.924     0.012     2.863     2.646
    85   1 H        0.923     0.034     2.524     2.485
    86   1 H        0.923     0.081     1.969     2.195
    87   1 H        0.923     0.037     2.491     2.468
    88   1 H        0.924     0.060     2.197     2.318
    89   1 H        0.802     0.343     0.605     1.222
    90   1 H        0.804     0.343     0.606     1.223
    91   1 H        0.924     0.092     1.857     2.131
    92   1 H        0.924     0.092     1.858     2.132
    93   1 H        0.926     0.097     1.811     2.104
    94   1 H        0.926     0.072     2.065     2.247
    95   1 H        0.926     0.069     2.102     2.267
    96   1 H        0.926     0.064     2.151     2.293
    97   1 H        0.924     0.071     2.080     2.255
    98   1 H        0.924     0.061     2.192     2.315
    99   1 H        0.923     0.048     2.341     2.393
   100   1 H        0.926     0.050     2.315     2.379
   101   1 H        0.804     0.351     0.585     1.202
   102   1 H        0.926     0.046     2.376     2.411
   103   1 H        0.926     0.042     2.417     2.431
   104   1 H        0.926     0.023     2.690     2.565
   105   1 H        0.924     0.054     2.275     2.359
   106   1 H        0.924     0.059     2.211     2.325
   107   1 H        0.924     0.029     2.596     2.519
   108   1 H        0.924     0.038     2.474     2.460
   109   1 H        0.924     0.034     2.528     2.486
   110   1 H        0.924     0.014     2.820     2.626
   111   1 H        0.924     0.036     2.509     2.477
   112   1 H        0.924     0.030     2.584     2.514
   113   1 H        0.924     0.041     2.434     2.440
   114   1 H        0.925     0.009     2.908     2.667
   115   1 H        0.924     0.040     2.449     2.447
   116   1 H        0.803     0.364     0.557     1.173
   117   1 H        0.804     0.379     0.525     1.138
   118   1 H        0.923     0.062     2.181     2.310
   119   1 H        0.923     0.038     2.476     2.461
   120   1 H        0.923     0.040     2.448     2.447
   121   1 H        0.923     0.057     2.230     2.336
   122   1 H        0.923     0.048     2.345     2.395
   123   1 H        0.924     0.070     2.081     2.256
   124   1 H        0.924     0.057     2.238     2.340
   125   1 H        0.803     0.375     0.534     1.148
   126   1 H        0.804     0.375     0.534     1.148
   127   1 H        0.802     0.337     0.619     1.236
   128   1 H        0.803     0.359     0.568     1.184
   129   1 H        0.926     0.065     2.144     2.290
   130   1 H        0.926     0.057     2.238     2.340
   131   1 H        0.926     0.065     2.146     2.291
   132   1 H        0.926     0.067     2.117     2.276
   133   1 H        0.926     0.056     2.248     2.345

 Mol. C6AA /au·bohr⁶  :     172522.297025
 Mol. C8AA /au·bohr⁸  :    3925368.085764
 Mol. α(0) /au        :        623.716347


Wiberg/Mayer (AO) data.
largest (>0.10) Wiberg bond orders for each atom

 ---------------------------------------------------------------------------
     #   Z sym  total        # sym  WBO       # sym  WBO       # sym  WBO
 ---------------------------------------------------------------------------
     1   6 C    3.941 --     6 C    1.390     2 C    1.334    51 O    1.071
     2   6 C    3.976 --     3 C    1.394     1 C    1.334     7 C    0.993
     3   6 C    3.987 --     4 C    1.425     2 C    1.394    13 C    0.997
     4   6 C    3.980 --     3 C    1.425     5 C    1.363    70 H    0.962
     5   6 C    3.944 --     6 C    1.378     4 C    1.363    52 O    1.075
     6   6 C    3.977 --     1 C    1.390     5 C    1.378    71 H    0.961
     7   6 C    3.938 --     2 C    0.993    72 H    0.954    12 O    0.948
                             8 C    0.945
     8   6 C    3.951 --    15 O    0.998     9 C    0.967    73 H    0.946
                             7 C    0.945
     9   6 C    3.931 --    10 C    0.969     8 C    0.967    74 H    0.944
                            17 O    0.938
    10   6 C    3.933 --     9 C    0.969    11 C    0.958    16 O    0.955
                            75 H    0.953
    11   6 C    3.949 --    18 C    0.981    12 O    0.969    10 C    0.958
                            76 H    0.945
    12   8 O    2.063 --    11 C    0.969     7 C    0.948
    13   6 C    3.947 --     3 C    0.997    14 O    0.982    78 H    0.968
                            77 H    0.953
    14   8 O    1.929 --    13 C    0.982    79 H    0.858
    15   8 O    1.925 --     8 C    0.998    80 H    0.835
    16   8 O    2.110 --    20 C    0.985    10 C    0.955
    17   8 O    2.253 --    33 C    1.066     9 C    0.938    35 O    0.142
    18   6 C    3.957 --    19 O    1.011    11 C    0.981    82 H    0.967
                            81 H    0.964
    19   8 O    1.937 --    18 C    1.011    83 H    0.841
    20   6 C    3.925 --    16 O    0.985    25 C    0.955    21 O    0.952
                            84 H    0.938
    21   8 O    2.054 --    20 C    0.952    22 C    0.945
    22   6 C    3.933 --    29 C    0.984    23 C    0.960    85 H    0.950
                            21 O    0.945
    23   6 C    3.959 --    28 O    1.010    22 C    0.960    24 C    0.957
                            86 H    0.954
    24   6 C    3.965 --    26 O    1.006    25 C    0.966    23 C    0.957
                            87 H    0.951
    25   6 C    3.946 --    24 C    0.966    27 O    0.965    20 C    0.955
                            88 H    0.950
    26   8 O    1.944 --    24 C    1.006    89 H    0.831
    27   8 O    2.113 --    53 C    0.979    25 C    0.965
    28   8 O    1.952 --    23 C    1.010    90 H    0.862
    29   6 C    3.921 --    22 C    0.984    92 H    0.958    30 O    0.957
                            91 H    0.954
    30   8 O    2.302 --    31 C    1.110    29 C    0.957    32 O    0.154
    31   6 C    3.896 --    32 O    1.674    30 O    1.110    64 C    1.011
    32   8 O    2.006 --    31 C    1.674    30 O    0.154
    33   6 C    3.894 --    35 O    1.656    34 C    1.070    17 O    1.066
    34   6 C    3.964 --    36 C    1.728    33 C    1.070    93 H    0.951
                            38 C    0.109
    35   8 O    1.997 --    33 C    1.656    17 O    0.142
    36   6 C    3.973 --    34 C    1.728    37 C    1.151    94 H    0.949
    37   6 C    3.986 --    38 C    1.785    36 C    1.151    95 H    0.957
    38   6 C    3.961 --    37 C    1.785    39 C    1.043    96 H    0.956
                            34 C    0.109
    39   6 C    3.985 --    38 C    1.043    98 H    0.969    97 H    0.959
                            40 C    0.938
    40   6 C    3.941 --    41 C    1.006    42 O    0.981    99 H    0.958
                            39 C    0.938
    41   6 C    3.986 --    43 C    1.831    40 C    1.006   100 H    0.963
                            45 C    0.129
    42   8 O    1.920 --    40 C    0.981   101 H    0.860
    43   6 C    3.989 --    41 C    1.831    44 C    1.125   102 H    0.954
    44   6 C    3.990 --    45 C    1.827    43 C    1.125   103 H    0.963
    45   6 C    3.983 --    44 C    1.827    46 C    1.032   104 H    0.961
                            41 C    0.129
    46   6 C    3.996 --    45 C    1.032    47 C    1.007   105 H    0.959
                           106 H    0.953
    47   6 C    3.996 --    48 C    1.008    46 C    1.007   108 H    0.977
                           107 H    0.976
    48   6 C    3.995 --    47 C    1.008    49 C    1.007   109 H    0.976
                           110 H    0.968
    49   6 C    3.997 --    50 C    1.021    48 C    1.007   111 H    0.977
                           112 H    0.974
    50   6 C    3.995 --    49 C    1.021   115 H    0.986   113 H    0.982
                           114 H    0.977
    51   8 O    2.082 --     1 C    1.071   116 H    0.847
    52   8 O    2.071 --     5 C    1.075   117 H    0.838
    53   6 C    3.912 --    27 O    0.979    58 O    0.952    54 C    0.950
                           118 H    0.945
    54   6 C    3.959 --    62 O    1.000    55 C    0.968   119 H    0.951
                            53 C    0.950
    55   6 C    3.962 --    61 O    1.001    54 C    0.968    56 C    0.968
                           120 H    0.959
    56   6 C    3.961 --    60 O    0.999    57 C    0.968    55 C    0.968
                           121 H    0.957
    57   6 C    3.933 --    59 C    0.984    56 C    0.968   122 H    0.956
                            58 O    0.941
    58   8 O    2.072 --    53 C    0.952    57 C    0.941
    59   6 C    3.959 --    63 O    1.013    57 C    0.984   123 H    0.967
                           124 H    0.962
    60   8 O    1.938 --    56 C    0.999   125 H    0.831
    61   8 O    1.925 --    55 C    1.001   126 H    0.842
    62   8 O    1.933 --    54 C    1.000   127 H    0.844
    63   8 O    1.915 --    59 C    1.013   128 H    0.830
    64   6 C    3.982 --    65 C    1.382    69 C    1.380    31 C    1.011
                            67 C    0.101
    65   6 C    3.986 --    66 C    1.450    64 C    1.382   129 H    0.957
                            68 C    0.108
    66   6 C    3.990 --    65 C    1.450    67 C    1.434   130 H    0.968
                            69 C    0.108
    67   6 C    3.988 --    66 C    1.434    68 C    1.432   131 H    0.968
                            64 C    0.101
    68   6 C    3.990 --    69 C    1.453    67 C    1.432   132 H    0.967
                            65 C    0.108
    69   6 C    3.988 --    68 C    1.453    64 C    1.380   133 H    0.967
                            66 C    0.108
    70   1 H    0.996 --     4 C    0.962
    71   1 H    0.994 --     6 C    0.961
    72   1 H    0.999 --     7 C    0.954
    73   1 H    0.995 --     8 C    0.946
    74   1 H    0.999 --     9 C    0.944
    75   1 H    0.992 --    10 C    0.953
    76   1 H    0.999 --    11 C    0.945
    77   1 H    0.995 --    13 C    0.953
    78   1 H    0.998 --    13 C    0.968
    79   1 H    0.872 --    14 O    0.858
    80   1 H    0.889 --    15 O    0.835
    81   1 H    0.997 --    18 C    0.964
    82   1 H    0.995 --    18 C    0.967
    83   1 H    0.888 --    19 O    0.841
    84   1 H    1.000 --    20 C    0.938
    85   1 H    0.999 --    22 C    0.950
    86   1 H    0.993 --    23 C    0.954
    87   1 H    0.998 --    24 C    0.951
    88   1 H    0.996 --    25 C    0.950
    89   1 H    0.882 --    26 O    0.831
    90   1 H    0.883 --    28 O    0.862
    91   1 H    0.991 --    29 C    0.954
    92   1 H    0.990 --    29 C    0.958
    93   1 H    0.990 --    34 C    0.951
    94   1 H    0.995 --    36 C    0.949
    95   1 H    0.995 --    37 C    0.957
    96   1 H    0.996 --    38 C    0.956
    97   1 H    0.990 --    39 C    0.959
    98   1 H    0.996 --    39 C    0.969
    99   1 H    0.997 --    40 C    0.958
   100   1 H    0.997 --    41 C    0.963
   101   1 H    0.876 --    42 O    0.860
   102   1 H    0.998 --    43 C    0.954
   103   1 H    0.998 --    44 C    0.963
   104   1 H    0.999 --    45 C    0.961
   105   1 H    0.997 --    46 C    0.959
   106   1 H    0.996 --    46 C    0.953
   107   1 H    0.999 --    47 C    0.976
   108   1 H    0.998 --    47 C    0.977
   109   1 H    0.999 --    48 C    0.976
   110   1 H    1.000 --    48 C    0.968
   111   1 H    0.998 --    49 C    0.977
   112   1 H    0.999 --    49 C    0.974
   113   1 H    0.998 --    50 C    0.982
   114   1 H    1.000 --    50 C    0.977
   115   1 H    0.998 --    50 C    0.986
   116   1 H    0.867 --    51 O    0.847
   117   1 H    0.856 --    52 O    0.838
   118   1 H    0.995 --    53 C    0.945
   119   1 H    0.998 --    54 C    0.951
   120   1 H    0.998 --    55 C    0.959
   121   1 H    0.996 --    56 C    0.957
   122   1 H    0.998 --    57 C    0.956
   123   1 H    0.995 --    59 C    0.967
   124   1 H    0.996 --    59 C    0.962
   125   1 H    0.860 --    60 O    0.831
   126   1 H    0.859 --    61 O    0.842
   127   1 H    0.886 --    62 O    0.844
   128   1 H    0.871 --    63 O    0.830
   129   1 H    0.996 --    65 C    0.957
   130   1 H    0.996 --    66 C    0.968
   131   1 H    0.995 --    67 C    0.968
   132   1 H    0.995 --    68 C    0.967
   133   1 H    0.997 --    69 C    0.967
 ---------------------------------------------------------------------------

Topologies differ in total number of bonds
Writing topology from bond orders to xtbtopo.mol

molecular dipole:
                 x           y           z       tot (Debye)
 q only:       -0.913      -0.036      -2.277
   full:       -1.120       0.045      -2.957       8.037
molecular quadrupole (traceless):
                xx          xy          yy          xz          yz          zz
 q only:       35.058       8.831      -1.068     -32.227     -15.696     -33.990
  q+dip:       18.159      13.765      12.604     -38.238     -17.723     -30.763
   full:       17.239      11.989       8.352     -38.204     -17.749     -25.592


           -------------------------------------------------
          | TOTAL ENERGY             -220.835065043217 Eh   |
          | GRADIENT NORM               0.114075681414 Eh/α |
          | HOMO-LUMO GAP               1.858261625849 eV   |
           -------------------------------------------------

------------------------------------------------------------------------
 * finished run on 2026/06/19 at 18:52:21.852     
------------------------------------------------------------------------
 total:
 * wall-time:     0 d,  0 h,  0 min,  0.290 sec
 *  cpu-time:     0 d,  0 h,  0 min,  4.086 sec
 * ratio c/w:    14.078 speedup
 SCF:
 * wall-time:     0 d,  0 h,  0 min,  0.227 sec
 *  cpu-time:     0 d,  0 h,  0 min,  3.550 sec
 * ratio c/w:    15.624 speedup

normal termination of xtb
