      -----------------------------------------------------------      
     |                   =====================                   |     
     |                           x T B                           |     
     |                   =====================                   |     
     |                         S. Grimme                         |     
     |          Mulliken Center for Theoretical Chemistry        |     
     |                    University of Bonn                     |     
      -----------------------------------------------------------      

   * xtb version 6.7.1 (edcfbbe) compiled by 'albert@albert-system' on 2024-07-22

   xtb is free software: you can redistribute it and/or modify it under
   the terms of the GNU Lesser General Public License as published by
   the Free Software Foundation, either version 3 of the License, or
   (at your option) any later version.
   
   xtb is distributed in the hope that it will be useful,
   but WITHOUT ANY WARRANTY; without even the implied warranty of
   MERCHANTABILITY or FITNESS FOR A PARTICULAR PURPOSE.  See the
   GNU Lesser General Public License for more details.
   
   Cite this work as:
   * C. Bannwarth, E. Caldeweyher, S. Ehlert, A. Hansen, P. Pracht,
     J. Seibert, S. Spicher, S. Grimme, WIREs Comput. Mol. Sci., 2020, 11,
     e01493. DOI: 10.1002/wcms.1493
   
   for GFN2-xTB:
   * C. Bannwarth, S. Ehlert and S. Grimme., J. Chem. Theory Comput., 2019,
     15, 1652-1671. DOI: 10.1021/acs.jctc.8b01176
   for GFN1-xTB:
   * S. Grimme, C. Bannwarth, P. Shushkov, J. Chem. Theory Comput., 2017,
     13, 1989-2009. DOI: 10.1021/acs.jctc.7b00118
   for GFN0-xTB:
   * P. Pracht, E. Caldeweyher, S. Ehlert, S. Grimme, ChemRxiv, 2019, preprint.
     DOI: 10.26434/chemrxiv.8326202.v1
   for GFN-FF:
   * S. Spicher and S. Grimme, Angew. Chem. Int. Ed., 2020, 59, 15665-15673.
     DOI: 10.1002/anie.202004239
   
   for ALPB and GBSA implicit solvation:
   * S. Ehlert, M. Stahn, S. Spicher, S. Grimme, J. Chem. Theory Comput.,
     2021, 17, 4250-4261. DOI: 10.1021/acs.jctc.1c00471
   
   for ddCOSMO and CPCM-X implicit solvation:
   * M. Stahn, S. Ehlert, S. Grimme, J. Phys. Chem. A,
     2023, XX, XXXX-XXXX. DOI: 10.1021/acs.jpca.3c04382
   
   for DFT-D4:
   * E. Caldeweyher, C. Bannwarth and S. Grimme, J. Chem. Phys., 2017,
     147, 034112. DOI: 10.1063/1.4993215
   * E. Caldeweyher, S. Ehlert, A. Hansen, H. Neugebauer, S. Spicher,
     C. Bannwarth and S. Grimme, J. Chem. Phys., 2019, 150, 154122.
     DOI: 10.1063/1.5090222
   * E. Caldeweyher, J.-M. Mewes, S. Ehlert and S. Grimme, Phys. Chem. Chem. Phys.
     2020, 22, 8499-8512. DOI: 10.1039/D0CP00502A
   
   for sTDA-xTB:
   * S. Grimme and C. Bannwarth, J. Chem. Phys., 2016, 145, 054103.
     DOI: 10.1063/1.4959605
   
   in the mass-spec context:
   * V. Asgeirsson, C. Bauer and S. Grimme, Chem. Sci., 2017, 8, 4879.
     DOI: 10.1039/c7sc00601b
   * J. Koopman and S. Grimme, ACS Omega 2019, 4, 12, 15120-15133.
     DOI: 10.1021/acsomega.9b02011
   
   for metadynamics refer to:
   * S. Grimme, J. Chem. Theory Comput., 2019, 155, 2847-2862
     DOI: 10.1021/acs.jctc.9b00143
   
   for SPH calculations refer to:
   * S. Spicher and S. Grimme, J. Chem. Theory Comput., 2021, 17, 1701-1714
     DOI: 10.1021/acs.jctc.0c01306
   
   for ONIOM refer to:
   * C. Plett, A. Katbashev, S. Ehlert, S. Grimme, M. Bursch,
     Phys. Chem. Chem. Phys., 2023, 25, 17860-17868. DOI: 10.1039/D3CP02178E
   
   for DIPRO refer to:
   * J. Kohn, N. Gildemeister, S. Grimme, D. Fazzi, A. Hansen,
     J. Chem. Phys., 2023, just accepted.
   
   for PTB refer to:
   * S. Grimme, M. Mueller, A. Hansen, J. Chem. Phys., 2023, 158, 124111.
     DOI: 10.1063/5.0137838
   
   with help from (in alphabetical order)
   P. Atkinson, C. Bannwarth, F. Bohle, G. Brandenburg, E. Caldeweyher
   M. Checinski, S. Dohm, S. Ehlert, S. Ehrlich, I. Gerasimov, C. Hölzer
   A. Katbashev, J. Kohn, J. Koopman, C. Lavigne, S. Lehtola, F. März, M. Müller,
   F. Musil, H. Neugebauer, J. Pisarek, C. Plett, P. Pracht, F. Pultar,
   J. Seibert, P. Shushkov, S. Spicher, M. Stahn, M. Steiner, T. Strunk,
   J. Stückrath, T. Rose, and J. Unsleber
   
 * started run on 2026/06/19 at 18:52:39.265     
   ID    Z sym.   atoms
    1    6 C      1-11, 13, 18, 20, 22-25, 29, 31, 33, 34, 36-41, 43-50,
                  53-57, 59, 64-75
    2    8 O      12, 14-17, 19, 21, 26-28, 30, 32, 35, 42, 51, 52, 58, 60-63
    3    1 H      76-143

           -------------------------------------------------
          |                Calculation Setup                |
           -------------------------------------------------

          program call               : xtb PAPU-0080/conf03.xyz --gfn 2 --alpb octanol --chrg 0 --uhf 0 --namespace PAPU-0080/conf03_octanol
          hostname                   : cpu10
          calculation namespace      : PAPU-0080/conf03_octanol
          coordinate file            : PAPU-0080/conf03.xyz
          omp threads                :                    16


           -------------------------------------------------
          |                 G F N 2 - x T B                 |
           -------------------------------------------------

        Reference                      10.1021/acs.jctc.8b01176
      * Hamiltonian:
        H0-scaling (s, p, d)           1.850000    2.230000    2.230000
        zeta-weighting                 0.500000
      * Dispersion:
        s8                             2.700000
        a1                             0.520000
        a2                             5.000000
        s9                             5.000000
      * Repulsion:
        kExp                           1.500000    1.000000
        rExp                           1.000000
      * Coulomb:
        alpha                          2.000000
        third order                    shell-resolved
        anisotropic                    true
        a3                             3.000000
        a5                             4.000000
        cn-shift                       1.200000
        cn-exp                         4.000000
        max-rad                        5.000000

      * Solvation model:               ALPB
        Solvent                        octanol
        Parameter file                 internal GFN2-xTB/ALPB
        Dielectric constant                9.8629E+00
        Reference state                gsolv [1 M gas/solution]
        Free energy shift                  2.3397E-03 Eh       1.4682E+00 kcal/mol
        Temperature                        2.9815E+02 K
        Density                            8.3000E-01 kg/L
        Solvent mass                       1.3023E+02 g/mol
        Interaction kernel             P16
        Born radius scaling (c1)           1.5898E+00
        Born radii integrator          GBOBC
        Born offset                        0.0000E+00 a0       0.0000E+00 AA
        H-bond correction              true
        Ion screening                  false
        Surface tension                    1.0000E-05 Eh       1.5569E+01 dyn/cm
        Grid points                               230 per atom

          ...................................................
          :                      SETUP                      :
          :.................................................:
          :  # basis functions                 368          :
          :  # atomic orbitals                 368          :
          :  # shells                          218          :
          :  # electrons                       410          :
          :  max. iterations                   250          :
          :  Hamiltonian                  GFN2-xTB          :
          :  restarted?                      false          :
          :  GBSA solvation                   true          :
          :  PC potential                    false          :
          :  electronic temp.          300.0000000     K    :
          :  accuracy                    1.0000000          :
          :  -> integral cutoff          0.2500000E+02      :
          :  -> integral neglect         0.1000000E-07      :
          :  -> SCF convergence          0.1000000E-05 Eh   :
          :  -> wf. convergence          0.1000000E-03 e    :
          :  Broyden damping             0.4000000          :
          :  net charge                          0          :
          :  unpaired electrons                  0          :
          ...................................................

 iter      E             dE          RMSdq      gap      omega  full diag
   1   -238.1429680 -0.238143E+03  0.446E+00    2.43       0.0  T
   2   -238.3595059 -0.216538E+00  0.246E+00    1.78       1.0  T
   3   -238.3388579  0.206480E-01  0.103E+00    1.89       1.0  T
   4   -238.3783891 -0.395313E-01  0.319E-01    1.67       1.0  T
   5   -238.3853244 -0.693524E-02  0.132E-01    1.67       1.0  T
   6   -238.3863251 -0.100069E-02  0.623E-02    1.68       1.0  T
   7   -238.3864559 -0.130801E-03  0.276E-02    1.68       1.0  T
   8   -238.3864849 -0.290086E-04  0.118E-02    1.68       1.0  T
   9   -238.3864893 -0.447289E-05  0.625E-03    1.68       1.3  T
  10   -238.3864916 -0.228609E-05  0.276E-03    1.68       3.0  T
  11   -238.3864919 -0.244934E-06  0.139E-03    1.68       6.0  T
  12   -238.3864919 -0.446661E-07  0.544E-04    1.68      15.4  T
  13   -238.3864919 -0.120330E-07  0.253E-04    1.68      33.0  T

   *** convergence criteria satisfied after 13 iterations ***

         #    Occupation            Energy/Eh            Energy/eV
      -------------------------------------------------------------
         1        2.0000           -0.7717961             -21.0016
       ...           ...                  ...                  ...
       199        2.0000           -0.4077135             -11.0944
       200        2.0000           -0.4058057             -11.0425
       201        2.0000           -0.4037959             -10.9878
       202        2.0000           -0.3978721             -10.8267
       203        2.0000           -0.3972204             -10.8089
       204        2.0000           -0.3863324             -10.5126
       205        2.0000           -0.3730109             -10.1501 (HOMO)
       206                         -0.3112699              -8.4701 (LUMO)
       207                         -0.3000397              -8.1645
       208                         -0.2451911              -6.6720
       209                         -0.2435619              -6.6277
       210                         -0.2423948              -6.5959
       ...                                ...                  ...
       368                          0.6905573              18.7910
      -------------------------------------------------------------
                  HL-Gap            0.0617410 Eh            1.6801 eV
             Fermi-level           -0.3421404 Eh           -9.3101 eV

 SCC (total)                   0 d,  0 h,  0 min,  0.246 sec
 SCC setup                      ...        0 min,  0.003 sec (  1.241%)
 Dispersion                     ...        0 min,  0.004 sec (  1.557%)
 classical contributions        ...        0 min,  0.000 sec (  0.046%)
 integral evaluation            ...        0 min,  0.011 sec (  4.472%)
 iterations                     ...        0 min,  0.188 sec ( 76.349%)
 molecular gradient             ...        0 min,  0.038 sec ( 15.462%)
 printout                       ...        0 min,  0.002 sec (  0.858%)

         :::::::::::::::::::::::::::::::::::::::::::::::::::::
         ::                     SUMMARY                     ::
         :::::::::::::::::::::::::::::::::::::::::::::::::::::
         :: total energy            -235.766540123498 Eh    ::
         :: total w/o Gsasa/hb      -235.688205367517 Eh    ::
         :: gradient norm              0.122782477215 Eh/a0 ::
         :: HOMO-LUMO gap              1.680058064685 eV    ::
         ::.................................................::
         :: SCC energy              -238.372695569472 Eh    ::
         :: -> isotropic ES            0.535778314045 Eh    ::
         :: -> anisotropic ES         -0.032019418049 Eh    ::
         :: -> anisotropic XC          0.022679644867 Eh    ::
         :: -> dispersion             -0.200112679795 Eh    ::
         :: -> Gsolv                  -0.111434124456 Eh    ::
         ::    -> Gelec               -0.033099368475 Eh    ::
         ::    -> Gsasa               -0.030122012373 Eh    ::
         ::    -> Ghb                 -0.050552412983 Eh    ::
         ::    -> Gshift               0.002339669376 Eh    ::
         :: repulsion energy           2.606155445975 Eh    ::
         :: add. restraining           0.000000000000 Eh    ::
         :: total charge              -0.000000000000 e     ::
         :::::::::::::::::::::::::::::::::::::::::::::::::::::

           -------------------------------------------------
          |                Property Printout                |
           -------------------------------------------------

    * Orbital Energies and Occupations

         #    Occupation            Energy/Eh            Energy/eV
      -------------------------------------------------------------
         1        2.0000           -0.7717961             -21.0016
       ...           ...                  ...                  ...
       193        2.0000           -0.4235255             -11.5247
       194        2.0000           -0.4231785             -11.5153
       195        2.0000           -0.4195746             -11.4172
       196        2.0000           -0.4165233             -11.3342
       197        2.0000           -0.4106190             -11.1735
       198        2.0000           -0.4082554             -11.1092
       199        2.0000           -0.4077135             -11.0944
       200        2.0000           -0.4058057             -11.0425
       201        2.0000           -0.4037959             -10.9878
       202        2.0000           -0.3978721             -10.8267
       203        2.0000           -0.3972204             -10.8089
       204        2.0000           -0.3863324             -10.5126
       205        2.0000           -0.3730109             -10.1501 (HOMO)
       206                         -0.3112699              -8.4701 (LUMO)
       207                         -0.3000397              -8.1645
       208                         -0.2451911              -6.6720
       209                         -0.2435619              -6.6277
       210                         -0.2423948              -6.5959
       211                         -0.2353850              -6.4052
       212                         -0.2292402              -6.2379
       213                         -0.2262455              -6.1565
       214                         -0.2244943              -6.1088
       215                         -0.1995109              -5.4290
       216                         -0.1616999              -4.4001
       ...                                ...                  ...
       368                          0.6905573              18.7910
      -------------------------------------------------------------
                  HL-Gap            0.0617410 Eh            1.6801 eV
             Fermi-level           -0.3421404 Eh           -9.3101 eV

     #   Z          covCN         q      C6AA      α(0)
     1   6 C        2.838     0.145    24.840     8.168
     2   6 C        2.970    -0.046    29.138     8.854
     3   6 C        2.966     0.012    27.742     8.639
     4   6 C        2.931    -0.069    29.728     8.942
     5   6 C        2.837     0.150    24.735     8.150
     6   6 C        2.922    -0.101    30.543     9.063
     7   6 C        3.745     0.099    19.013     6.220
     8   6 C        3.722     0.093    19.150     6.250
     9   6 C        3.772     0.098    18.992     6.210
    10   6 C        3.745     0.094    19.090     6.233
    11   6 C        3.742     0.086    19.228     6.256
    12   8 O        1.695    -0.350    19.900     6.023
    13   6 C        3.683     0.073    19.553     6.332
    14   8 O        1.653    -0.497    22.826     6.450
    15   8 O        1.652    -0.465    22.145     6.353
    16   8 O        1.698    -0.337    19.657     5.986
    17   8 O        1.702    -0.301    19.005     5.886
    18   6 C        3.675     0.072    19.592     6.342
    19   8 O        1.654    -0.475    22.358     6.383
    20   6 C        3.644     0.248    17.064     5.938
    21   8 O        1.695    -0.358    20.034     6.043
    22   6 C        3.746     0.105    18.913     6.203
    23   6 C        3.721     0.089    19.220     6.261
    24   6 C        3.722     0.082    19.318     6.277
    25   6 C        3.753     0.085    19.224     6.252
    26   8 O        1.654    -0.479    22.446     6.396
    27   8 O        1.699    -0.323    19.394     5.946
    28   8 O        1.653    -0.483    22.524     6.407
    29   6 C        3.722     0.061    19.665     6.333
    30   8 O        1.703    -0.258    18.270     5.771
    31   6 C        2.745     0.360    20.884     7.483
    32   8 O        0.857    -0.480    23.348     6.478
    33   6 C        2.745     0.357    20.940     7.493
    34   6 C        2.896    -0.094    30.356     9.034
    35   8 O        0.858    -0.483    23.416     6.488
    36   6 C        2.904    -0.003    28.088     8.690
    37   6 C        2.899    -0.044    29.080     8.842
    38   6 C        2.895    -0.017    28.442     8.744
    39   6 C        3.806    -0.082    22.068     6.687
    40   6 C        3.728     0.118    18.744     6.181
    41   6 C        2.894    -0.072    29.785     8.948
    42   8 O        1.652    -0.492    22.712     6.433
    43   6 C        2.899    -0.039    28.969     8.825
    44   6 C        2.898    -0.053    29.323     8.879
    45   6 C        2.896    -0.032    28.800     8.799
    46   6 C        3.805    -0.060    21.652     6.624
    47   6 C        3.801    -0.055    21.563     6.611
    48   6 C        3.801    -0.064    21.721     6.636
    49   6 C        3.799    -0.053    21.528     6.606
    50   6 C        3.751    -0.110    22.672     6.791
    51   8 O        1.655    -0.432    21.474     6.256
    52   8 O        1.657    -0.432    21.484     6.257
    53   6 C        3.649     0.233    17.260     5.968
    54   6 C        3.722     0.084    19.288     6.272
    55   6 C        3.723     0.095    19.113     6.243
    56   6 C        3.721     0.088    19.229     6.263
    57   6 C        3.741     0.102    18.967     6.214
    58   8 O        1.696    -0.356    20.003     6.038
    59   6 C        3.675     0.072    19.592     6.342
    60   8 O        1.653    -0.480    22.473     6.399
    61   8 O        1.654    -0.477    22.413     6.391
    62   8 O        1.654    -0.483    22.525     6.407
    63   8 O        1.654    -0.480    22.461     6.398
    64   6 C        2.974    -0.030    28.752     8.796
    65   6 C        2.924    -0.025    28.620     8.773
    66   6 C        2.926    -0.031    28.777     8.797
    67   6 C        2.976     0.027    27.385     8.584
    68   6 C        2.926    -0.034    28.853     8.809
    69   6 C        2.925    -0.020    28.508     8.756
    70   6 C        2.975     0.009    27.815     8.651
    71   6 C        2.928    -0.031    28.770     8.796
    72   6 C        2.920    -0.030    28.757     8.794
    73   6 C        2.925    -0.029    28.723     8.789
    74   6 C        2.920    -0.032    28.803     8.801
    75   6 C        2.928    -0.037    28.931     8.821
    76   1 H        0.926     0.077     2.014     2.219
    77   1 H        0.926     0.074     2.045     2.237
    78   1 H        0.924     0.036     2.502     2.473
    79   1 H        0.924     0.075     2.037     2.232
    80   1 H        0.924     0.062     2.174     2.306
    81   1 H        0.923     0.069     2.102     2.267
    82   1 H        0.924     0.052     2.289     2.366
    83   1 H        0.924     0.038     2.479     2.462
    84   1 H        0.924     0.036     2.510     2.477
    85   1 H        0.804     0.345     0.600     1.216
    86   1 H        0.802     0.311     0.690     1.305
    87   1 H        0.924     0.065     2.137     2.286
    88   1 H        0.924     0.044     2.392     2.419
    89   1 H        0.803     0.351     0.586     1.203
    90   1 H        0.923     0.018     2.761     2.598
    91   1 H        0.923     0.049     2.329     2.386
    92   1 H        0.923     0.054     2.269     2.356
    93   1 H        0.923     0.061     2.182     2.310
    94   1 H        0.923     0.085     1.924     2.169
    95   1 H        0.804     0.361     0.563     1.179
    96   1 H        0.803     0.368     0.547     1.162
    97   1 H        0.924     0.100     1.785     2.089
    98   1 H        0.924     0.092     1.860     2.133
    99   1 H        0.926     0.081     1.973     2.197
   100   1 H        0.926     0.074     2.044     2.236
   101   1 H        0.926     0.070     2.085     2.258
   102   1 H        0.926     0.068     2.107     2.270
   103   1 H        0.924     0.076     2.021     2.223
   104   1 H        0.924     0.061     2.190     2.314
   105   1 H        0.923     0.052     2.290     2.367
   106   1 H        0.926     0.054     2.275     2.359
   107   1 H        0.804     0.337     0.619     1.236
   108   1 H        0.926     0.028     2.615     2.529
   109   1 H        0.926     0.046     2.367     2.406
   110   1 H        0.926     0.022     2.701     2.570
   111   1 H        0.924     0.042     2.420     2.433
   112   1 H        0.924     0.044     2.398     2.422
   113   1 H        0.924     0.033     2.540     2.492
   114   1 H        0.924     0.030     2.588     2.516
   115   1 H        0.924     0.040     2.450     2.448
   116   1 H        0.924     0.022     2.705     2.572
   117   1 H        0.924     0.030     2.590     2.517
   118   1 H        0.924     0.028     2.609     2.526
   119   1 H        0.924     0.035     2.522     2.484
   120   1 H        0.924     0.039     2.461     2.453
   121   1 H        0.924     0.037     2.484     2.465
   122   1 H        0.802     0.326     0.648     1.265
   123   1 H        0.804     0.360     0.566     1.182
   124   1 H        0.923     0.013     2.841     2.636
   125   1 H        0.923     0.060     2.195     2.317
   126   1 H        0.923     0.034     2.533     2.489
   127   1 H        0.923     0.056     2.252     2.347
   128   1 H        0.923     0.010     2.884     2.656
   129   1 H        0.924     0.062     2.179     2.308
   130   1 H        0.924     0.053     2.288     2.366
   131   1 H        0.803     0.371     0.541     1.155
   132   1 H        0.804     0.368     0.549     1.164
   133   1 H        0.804     0.359     0.568     1.184
   134   1 H        0.803     0.359     0.569     1.184
   135   1 H        0.926     0.059     2.206     2.323
   136   1 H        0.926     0.070     2.084     2.258
   137   1 H        0.926     0.062     2.173     2.305
   138   1 H        0.926     0.057     2.235     2.338
   139   1 H        0.926     0.043     2.405     2.425
   140   1 H        0.926     0.044     2.391     2.418
   141   1 H        0.926     0.045     2.379     2.412
   142   1 H        0.926     0.046     2.376     2.410
   143   1 H        0.926     0.044     2.393     2.419

 Mol. C6AA /au·bohr⁶  :     205785.545523
 Mol. C8AA /au·bohr⁸  :    4731153.687780
 Mol. α(0) /au        :        686.154100


Wiberg/Mayer (AO) data.
largest (>0.10) Wiberg bond orders for each atom

 ---------------------------------------------------------------------------
     #   Z sym  total        # sym  WBO       # sym  WBO       # sym  WBO
 ---------------------------------------------------------------------------
     1   6 C    3.938 --     6 C    1.382     2 C    1.339    51 O    1.069
     2   6 C    3.971 --     3 C    1.383     1 C    1.339     7 C    0.992
     3   6 C    3.988 --     4 C    1.436     2 C    1.383    13 C    1.001
     4   6 C    3.984 --     3 C    1.436     5 C    1.355    76 H    0.962
     5   6 C    3.945 --     6 C    1.384     4 C    1.355    52 O    1.077
     6   6 C    3.976 --     5 C    1.384     1 C    1.382    77 H    0.961
     7   6 C    3.939 --     2 C    0.992     8 C    0.948    12 O    0.948
                            78 H    0.945
     8   6 C    3.950 --    15 O    1.002     9 C    0.956    79 H    0.952
                             7 C    0.948
     9   6 C    3.924 --    10 C    0.970     8 C    0.956    17 O    0.942
                            80 H    0.937
    10   6 C    3.935 --     9 C    0.970    11 C    0.959    16 O    0.958
                            81 H    0.956
    11   6 C    3.944 --    18 C    0.982    12 O    0.966    10 C    0.959
                            82 H    0.948
    12   8 O    2.066 --    11 C    0.966     7 C    0.948
    13   6 C    3.954 --     3 C    1.001    14 O    0.980    84 H    0.967
                            83 H    0.958
    14   8 O    1.919 --    13 C    0.980    85 H    0.865
    15   8 O    1.959 --     8 C    1.002    86 H    0.852
    16   8 O    2.079 --    20 C    0.978    10 C    0.958
    17   8 O    2.252 --    33 C    1.077     9 C    0.942    35 O    0.143
    18   6 C    3.960 --    19 O    1.012    11 C    0.982    87 H    0.968
                            88 H    0.966
    19   8 O    1.930 --    18 C    1.012    89 H    0.857
    20   6 C    3.922 --    16 O    0.978    21 O    0.957    25 C    0.956
                            90 H    0.941
    21   8 O    2.063 --    20 C    0.957    22 C    0.949
    22   6 C    3.935 --    29 C    0.977    23 C    0.970    91 H    0.951
                            21 O    0.949
    23   6 C    3.966 --    28 O    1.008    22 C    0.970    24 C    0.967
                            92 H    0.956
    24   6 C    3.959 --    26 O    1.000    23 C    0.967    25 C    0.963
                            93 H    0.949
    25   6 C    3.938 --    27 O    0.965    24 C    0.963    20 C    0.956
                            94 H    0.953
    26   8 O    1.933 --    24 C    1.000    95 H    0.852
    27   8 O    2.088 --    53 C    0.982    25 C    0.965
    28   8 O    1.922 --    23 C    1.008    96 H    0.841
    29   6 C    3.919 --    22 C    0.977    97 H    0.961    30 O    0.958
                            98 H    0.957
    30   8 O    2.306 --    31 C    1.120    29 C    0.958    32 O    0.147
    31   6 C    3.887 --    32 O    1.632    30 O    1.120    64 C    1.025
    32   8 O    2.000 --    31 C    1.632    30 O    0.147
    33   6 C    3.897 --    35 O    1.645    17 O    1.077    34 C    1.075
    34   6 C    3.966 --    36 C    1.711    33 C    1.075    99 H    0.961
                            38 C    0.114
    35   8 O    1.982 --    33 C    1.645    17 O    0.143
    36   6 C    3.971 --    34 C    1.711    37 C    1.163   100 H    0.954
    37   6 C    3.985 --    38 C    1.768    36 C    1.163   101 H    0.958
    38   6 C    3.971 --    37 C    1.768    39 C    1.047   102 H    0.961
                            34 C    0.114
    39   6 C    3.983 --    38 C    1.047   104 H    0.968   103 H    0.962
                            40 C    0.931
    40   6 C    3.941 --    41 C    1.008    42 O    0.988   105 H    0.954
                            39 C    0.931
    41   6 C    3.974 --    43 C    1.826    40 C    1.008   106 H    0.963
                            45 C    0.127
    42   8 O    1.935 --    40 C    0.988   107 H    0.869
    43   6 C    3.990 --    41 C    1.826    44 C    1.124   108 H    0.959
    44   6 C    3.988 --    45 C    1.823    43 C    1.124   109 H    0.962
    45   6 C    3.984 --    44 C    1.823    46 C    1.036   110 H    0.964
                            41 C    0.127
    46   6 C    3.996 --    45 C    1.036    47 C    0.991   111 H    0.971
                           112 H    0.952
    47   6 C    3.991 --    48 C    1.006    46 C    0.991   114 H    0.977
                           113 H    0.973
    48   6 C    3.994 --    49 C    1.008    47 C    1.006   116 H    0.974
                           115 H    0.969
    49   6 C    3.998 --    50 C    1.021    48 C    1.008   118 H    0.978
                           117 H    0.975
    50   6 C    3.996 --    49 C    1.021   119 H    0.987   121 H    0.986
                           120 H    0.985
    51   8 O    2.090 --     1 C    1.069   122 H    0.840
    52   8 O    2.087 --     5 C    1.077   123 H    0.852
    53   6 C    3.921 --    27 O    0.982    54 C    0.956    58 O    0.953
                           124 H    0.945
    54   6 C    3.959 --    62 O    1.000    55 C    0.969    53 C    0.956
                           125 H    0.955
    55   6 C    3.966 --    61 O    1.004    54 C    0.969    56 C    0.968
                           126 H    0.960
    56   6 C    3.964 --    60 O    1.002    55 C    0.968    57 C    0.967
                           127 H    0.957
    57   6 C    3.937 --    59 C    0.982    56 C    0.967    58 O    0.952
                           128 H    0.949
    58   8 O    2.065 --    53 C    0.953    57 C    0.952
    59   6 C    3.964 --    63 O    1.018    57 C    0.982   129 H    0.964
                           130 H    0.959
    60   8 O    1.942 --    56 C    1.002   131 H    0.833
    61   8 O    1.934 --    55 C    1.004   132 H    0.848
    62   8 O    1.926 --    54 C    1.000   133 H    0.854
    63   8 O    1.922 --    59 C    1.018   134 H    0.831
    64   6 C    3.974 --    65 C    1.366    69 C    1.365    31 C    1.025
    65   6 C    3.986 --    66 C    1.473    64 C    1.366   135 H    0.963
    66   6 C    3.987 --    65 C    1.473    67 C    1.370   136 H    0.963
    67   6 C    3.984 --    68 C    1.373    66 C    1.370    70 C    1.055
    68   6 C    3.989 --    69 C    1.471    67 C    1.373   137 H    0.962
    69   6 C    3.986 --    68 C    1.471    64 C    1.365   138 H    0.965
    70   6 C    3.987 --    75 C    1.382    71 C    1.380    67 C    1.055
                            73 C    0.104
    71   6 C    3.988 --    72 C    1.455    70 C    1.380   139 H    0.966
                            74 C    0.107
    72   6 C    3.991 --    71 C    1.455    73 C    1.433   140 H    0.969
                            75 C    0.107
    73   6 C    3.982 --    72 C    1.433    74 C    1.432   141 H    0.970
                            70 C    0.104
    74   6 C    3.991 --    75 C    1.455    73 C    1.432   142 H    0.969
                            71 C    0.107
    75   6 C    3.988 --    74 C    1.455    70 C    1.382   143 H    0.966
                            72 C    0.107
    76   1 H    0.994 --     4 C    0.962
    77   1 H    0.994 --     6 C    0.961
    78   1 H    0.998 --     7 C    0.945
    79   1 H    0.994 --     8 C    0.952
    80   1 H    0.996 --     9 C    0.937
    81   1 H    0.995 --    10 C    0.956
    82   1 H    0.997 --    11 C    0.948
    83   1 H    0.998 --    13 C    0.958
    84   1 H    0.998 --    13 C    0.967
    85   1 H    0.880 --    14 O    0.865
    86   1 H    0.903 --    15 O    0.852
    87   1 H    0.995 --    18 C    0.968
    88   1 H    0.998 --    18 C    0.966
    89   1 H    0.877 --    19 O    0.857
    90   1 H    1.000 --    20 C    0.941
    91   1 H    0.998 --    22 C    0.951
    92   1 H    0.997 --    23 C    0.956
    93   1 H    0.996 --    24 C    0.949
    94   1 H    0.992 --    25 C    0.953
    95   1 H    0.869 --    26 O    0.852
    96   1 H    0.864 --    28 O    0.841
    97   1 H    0.989 --    29 C    0.961
    98   1 H    0.991 --    29 C    0.957
    99   1 H    0.993 --    34 C    0.961
   100   1 H    0.995 --    36 C    0.954
   101   1 H    0.995 --    37 C    0.958
   102   1 H    0.995 --    38 C    0.961
   103   1 H    0.990 --    39 C    0.962
   104   1 H    0.996 --    39 C    0.968
   105   1 H    0.997 --    40 C    0.954
   106   1 H    0.997 --    41 C    0.963
   107   1 H    0.886 --    42 O    0.869
   108   1 H    0.999 --    43 C    0.959
   109   1 H    0.998 --    44 C    0.962
   110   1 H    0.999 --    45 C    0.964
   111   1 H    0.998 --    46 C    0.971
   112   1 H    0.992 --    46 C    0.952
   113   1 H    0.999 --    47 C    0.973
   114   1 H    0.999 --    47 C    0.977
   115   1 H    0.998 --    48 C    0.969
   116   1 H    0.999 --    48 C    0.974
   117   1 H    0.999 --    49 C    0.975
   118   1 H    0.999 --    49 C    0.978
   119   1 H    0.998 --    50 C    0.987
   120   1 H    0.998 --    50 C    0.985
   121   1 H    0.999 --    50 C    0.986
   122   1 H    0.893 --    51 O    0.840
   123   1 H    0.870 --    52 O    0.852
   124   1 H    1.000 --    53 C    0.945
   125   1 H    0.996 --    54 C    0.955
   126   1 H    0.999 --    55 C    0.960
   127   1 H    0.996 --    56 C    0.957
   128   1 H    1.000 --    57 C    0.949
   129   1 H    0.996 --    59 C    0.964
   130   1 H    0.996 --    59 C    0.959
   131   1 H    0.862 --    60 O    0.833
   132   1 H    0.864 --    61 O    0.848
   133   1 H    0.871 --    62 O    0.854
   134   1 H    0.871 --    63 O    0.831
   135   1 H    0.996 --    65 C    0.963
   136   1 H    0.995 --    66 C    0.963
   137   1 H    0.995 --    68 C    0.962
   138   1 H    0.996 --    69 C    0.965
   139   1 H    0.998 --    71 C    0.966
   140   1 H    0.997 --    72 C    0.969
   141   1 H    0.997 --    73 C    0.970
   142   1 H    0.997 --    74 C    0.969
   143   1 H    0.998 --    75 C    0.966
 ---------------------------------------------------------------------------

Topologies differ in total number of bonds
Writing topology from bond orders to xtbtopo.mol

molecular dipole:
                 x           y           z       tot (Debye)
 q only:       -1.345      -3.039      -1.808
   full:       -0.533      -2.958      -2.229       9.512
molecular quadrupole (traceless):
                xx          xy          yy          xz          yz          zz
 q only:       12.093      -8.859      -4.799     -19.913      13.493      -7.294
  q+dip:        9.550      -9.709     -17.026     -24.054      14.998       7.476
   full:       11.407     -10.622     -19.013     -27.824      17.414       7.605


           -------------------------------------------------
          | TOTAL ENERGY             -235.766540123498 Eh   |
          | GRADIENT NORM               0.122782477215 Eh/α |
          | HOMO-LUMO GAP               1.680058064685 eV   |
           -------------------------------------------------

------------------------------------------------------------------------
 * finished run on 2026/06/19 at 18:52:39.564     
------------------------------------------------------------------------
 total:
 * wall-time:     0 d,  0 h,  0 min,  0.298 sec
 *  cpu-time:     0 d,  0 h,  0 min,  4.572 sec
 * ratio c/w:    15.328 speedup
 SCF:
 * wall-time:     0 d,  0 h,  0 min,  0.246 sec
 *  cpu-time:     0 d,  0 h,  0 min,  3.902 sec
 * ratio c/w:    15.835 speedup

normal termination of xtb
