      -----------------------------------------------------------      
     |                   =====================                   |     
     |                           x T B                           |     
     |                   =====================                   |     
     |                         S. Grimme                         |     
     |          Mulliken Center for Theoretical Chemistry        |     
     |                    University of Bonn                     |     
      -----------------------------------------------------------      

   * xtb version 6.7.1 (edcfbbe) compiled by 'albert@albert-system' on 2024-07-22

   xtb is free software: you can redistribute it and/or modify it under
   the terms of the GNU Lesser General Public License as published by
   the Free Software Foundation, either version 3 of the License, or
   (at your option) any later version.
   
   xtb is distributed in the hope that it will be useful,
   but WITHOUT ANY WARRANTY; without even the implied warranty of
   MERCHANTABILITY or FITNESS FOR A PARTICULAR PURPOSE.  See the
   GNU Lesser General Public License for more details.
   
   Cite this work as:
   * C. Bannwarth, E. Caldeweyher, S. Ehlert, A. Hansen, P. Pracht,
     J. Seibert, S. Spicher, S. Grimme, WIREs Comput. Mol. Sci., 2020, 11,
     e01493. DOI: 10.1002/wcms.1493
   
   for GFN2-xTB:
   * C. Bannwarth, S. Ehlert and S. Grimme., J. Chem. Theory Comput., 2019,
     15, 1652-1671. DOI: 10.1021/acs.jctc.8b01176
   for GFN1-xTB:
   * S. Grimme, C. Bannwarth, P. Shushkov, J. Chem. Theory Comput., 2017,
     13, 1989-2009. DOI: 10.1021/acs.jctc.7b00118
   for GFN0-xTB:
   * P. Pracht, E. Caldeweyher, S. Ehlert, S. Grimme, ChemRxiv, 2019, preprint.
     DOI: 10.26434/chemrxiv.8326202.v1
   for GFN-FF:
   * S. Spicher and S. Grimme, Angew. Chem. Int. Ed., 2020, 59, 15665-15673.
     DOI: 10.1002/anie.202004239
   
   for ALPB and GBSA implicit solvation:
   * S. Ehlert, M. Stahn, S. Spicher, S. Grimme, J. Chem. Theory Comput.,
     2021, 17, 4250-4261. DOI: 10.1021/acs.jctc.1c00471
   
   for ddCOSMO and CPCM-X implicit solvation:
   * M. Stahn, S. Ehlert, S. Grimme, J. Phys. Chem. A,
     2023, XX, XXXX-XXXX. DOI: 10.1021/acs.jpca.3c04382
   
   for DFT-D4:
   * E. Caldeweyher, C. Bannwarth and S. Grimme, J. Chem. Phys., 2017,
     147, 034112. DOI: 10.1063/1.4993215
   * E. Caldeweyher, S. Ehlert, A. Hansen, H. Neugebauer, S. Spicher,
     C. Bannwarth and S. Grimme, J. Chem. Phys., 2019, 150, 154122.
     DOI: 10.1063/1.5090222
   * E. Caldeweyher, J.-M. Mewes, S. Ehlert and S. Grimme, Phys. Chem. Chem. Phys.
     2020, 22, 8499-8512. DOI: 10.1039/D0CP00502A
   
   for sTDA-xTB:
   * S. Grimme and C. Bannwarth, J. Chem. Phys., 2016, 145, 054103.
     DOI: 10.1063/1.4959605
   
   in the mass-spec context:
   * V. Asgeirsson, C. Bauer and S. Grimme, Chem. Sci., 2017, 8, 4879.
     DOI: 10.1039/c7sc00601b
   * J. Koopman and S. Grimme, ACS Omega 2019, 4, 12, 15120-15133.
     DOI: 10.1021/acsomega.9b02011
   
   for metadynamics refer to:
   * S. Grimme, J. Chem. Theory Comput., 2019, 155, 2847-2862
     DOI: 10.1021/acs.jctc.9b00143
   
   for SPH calculations refer to:
   * S. Spicher and S. Grimme, J. Chem. Theory Comput., 2021, 17, 1701-1714
     DOI: 10.1021/acs.jctc.0c01306
   
   for ONIOM refer to:
   * C. Plett, A. Katbashev, S. Ehlert, S. Grimme, M. Bursch,
     Phys. Chem. Chem. Phys., 2023, 25, 17860-17868. DOI: 10.1039/D3CP02178E
   
   for DIPRO refer to:
   * J. Kohn, N. Gildemeister, S. Grimme, D. Fazzi, A. Hansen,
     J. Chem. Phys., 2023, just accepted.
   
   for PTB refer to:
   * S. Grimme, M. Mueller, A. Hansen, J. Chem. Phys., 2023, 158, 124111.
     DOI: 10.1063/5.0137838
   
   with help from (in alphabetical order)
   P. Atkinson, C. Bannwarth, F. Bohle, G. Brandenburg, E. Caldeweyher
   M. Checinski, S. Dohm, S. Ehlert, S. Ehrlich, I. Gerasimov, C. Hölzer
   A. Katbashev, J. Kohn, J. Koopman, C. Lavigne, S. Lehtola, F. März, M. Müller,
   F. Musil, H. Neugebauer, J. Pisarek, C. Plett, P. Pracht, F. Pultar,
   J. Seibert, P. Shushkov, S. Spicher, M. Stahn, M. Steiner, T. Strunk,
   J. Stückrath, T. Rose, and J. Unsleber
   
 * started run on 2026/06/19 at 18:52:40.201     
   ID    Z sym.   atoms
    1    6 C      1-11, 13, 18, 20, 22-25, 29, 31, 33, 34, 36-41, 43-50,
                  53-57, 59, 64-75
    2    8 O      12, 14-17, 19, 21, 26-28, 30, 32, 35, 42, 51, 52, 58, 60-63
    3    1 H      76-143

           -------------------------------------------------
          |                Calculation Setup                |
           -------------------------------------------------

          program call               : xtb PAPU-0080/conf05.xyz --gfn 2 --alpb water --chrg 0 --uhf 0 --namespace PAPU-0080/conf05_water
          hostname                   : cpu10
          calculation namespace      : PAPU-0080/conf05_water
          coordinate file            : PAPU-0080/conf05.xyz
          omp threads                :                    16


           -------------------------------------------------
          |                 G F N 2 - x T B                 |
           -------------------------------------------------

        Reference                      10.1021/acs.jctc.8b01176
      * Hamiltonian:
        H0-scaling (s, p, d)           1.850000    2.230000    2.230000
        zeta-weighting                 0.500000
      * Dispersion:
        s8                             2.700000
        a1                             0.520000
        a2                             5.000000
        s9                             5.000000
      * Repulsion:
        kExp                           1.500000    1.000000
        rExp                           1.000000
      * Coulomb:
        alpha                          2.000000
        third order                    shell-resolved
        anisotropic                    true
        a3                             3.000000
        a5                             4.000000
        cn-shift                       1.200000
        cn-exp                         4.000000
        max-rad                        5.000000

      * Solvation model:               ALPB
        Solvent                        water
        Parameter file                 internal GFN2-xTB/ALPB
        Dielectric constant                8.0200E+01
        Reference state                gsolv [1 M gas/solution]
        Free energy shift                  1.0808E-03 Eh       6.7819E-01 kcal/mol
        Temperature                        2.9815E+02 K
        Density                            1.0000E+00 kg/L
        Solvent mass                       1.8000E+01 g/mol
        Interaction kernel             P16
        Born radius scaling (c1)           1.4744E+00
        Born radii integrator          GBOBC
        Born offset                        0.0000E+00 a0       0.0000E+00 AA
        H-bond correction              true
        Ion screening                  false
        Surface tension                    1.0000E-05 Eh       1.5569E+01 dyn/cm
        Grid points                               230 per atom

          ...................................................
          :                      SETUP                      :
          :.................................................:
          :  # basis functions                 368          :
          :  # atomic orbitals                 368          :
          :  # shells                          218          :
          :  # electrons                       410          :
          :  max. iterations                   250          :
          :  Hamiltonian                  GFN2-xTB          :
          :  restarted?                      false          :
          :  GBSA solvation                   true          :
          :  PC potential                    false          :
          :  electronic temp.          300.0000000     K    :
          :  accuracy                    1.0000000          :
          :  -> integral cutoff          0.2500000E+02      :
          :  -> integral neglect         0.1000000E-07      :
          :  -> SCF convergence          0.1000000E-05 Eh   :
          :  -> wf. convergence          0.1000000E-03 e    :
          :  Broyden damping             0.4000000          :
          :  net charge                          0          :
          :  unpaired electrons                  0          :
          ...................................................

 iter      E             dE          RMSdq      gap      omega  full diag
   1   -238.1162543 -0.238116E+03  0.447E+00    2.50       0.0  T
   2   -238.3356366 -0.219382E+00  0.246E+00    1.86       1.0  T
   3   -238.3147731  0.208635E-01  0.102E+00    1.87       1.0  T
   4   -238.3555133 -0.407403E-01  0.332E-01    1.62       1.0  T
   5   -238.3623184 -0.680510E-02  0.139E-01    1.63       1.0  T
   6   -238.3632097 -0.891262E-03  0.695E-02    1.62       1.0  T
   7   -238.3633733 -0.163593E-03  0.318E-02    1.63       1.0  T
   8   -238.3634123 -0.390165E-04  0.146E-02    1.63       1.0  T
   9   -238.3634199 -0.755987E-05  0.721E-03    1.63       1.2  T
  10   -238.3634216 -0.172294E-05  0.444E-03    1.62       1.9  T
  11   -238.3634225 -0.932982E-06  0.241E-03    1.62       3.5  T
  12   -238.3634228 -0.253189E-06  0.960E-04    1.62       8.7  T
  13   -238.3634228 -0.467171E-07  0.466E-04    1.62      18.0  T

   *** convergence criteria satisfied after 13 iterations ***

         #    Occupation            Energy/Eh            Energy/eV
      -------------------------------------------------------------
         1        2.0000           -0.7716854             -20.9986
       ...           ...                  ...                  ...
       199        2.0000           -0.4106384             -11.1740
       200        2.0000           -0.4049006             -11.0179
       201        2.0000           -0.4024400             -10.9510
       202        2.0000           -0.3943145             -10.7298
       203        2.0000           -0.3924270             -10.6785
       204        2.0000           -0.3839448             -10.4477
       205        2.0000           -0.3735280             -10.1642 (HOMO)
       206                         -0.3139613              -8.5433 (LUMO)
       207                         -0.2940343              -8.0011
       208                         -0.2440695              -6.6415
       209                         -0.2422936              -6.5931
       210                         -0.2376039              -6.4655
       ...                                ...                  ...
       368                          0.6946476              18.9023
      -------------------------------------------------------------
                  HL-Gap            0.0595667 Eh            1.6209 eV
             Fermi-level           -0.3437447 Eh           -9.3538 eV

 SCC (total)                   0 d,  0 h,  0 min,  0.247 sec
 SCC setup                      ...        0 min,  0.003 sec (  1.219%)
 Dispersion                     ...        0 min,  0.004 sec (  1.641%)
 classical contributions        ...        0 min,  0.000 sec (  0.046%)
 integral evaluation            ...        0 min,  0.012 sec (  4.725%)
 iterations                     ...        0 min,  0.189 sec ( 76.492%)
 molecular gradient             ...        0 min,  0.037 sec ( 15.155%)
 printout                       ...        0 min,  0.002 sec (  0.702%)

         :::::::::::::::::::::::::::::::::::::::::::::::::::::
         ::                     SUMMARY                     ::
         :::::::::::::::::::::::::::::::::::::::::::::::::::::
         :: total energy            -235.744978349640 Eh    ::
         :: total w/o Gsasa/hb      -235.706166653410 Eh    ::
         :: gradient norm              0.127916852179 Eh/a0 ::
         :: HOMO-LUMO gap              1.620892520467 eV    ::
         ::.................................................::
         :: SCC energy              -238.349792340044 Eh    ::
         :: -> isotropic ES            0.551234482119 Eh    ::
         :: -> anisotropic ES         -0.033136822460 Eh    ::
         :: -> anisotropic XC          0.023982746219 Eh    ::
         :: -> dispersion             -0.198910288764 Eh    ::
         :: -> Gsolv                  -0.091713026364 Eh    ::
         ::    -> Gelec               -0.052901330133 Eh    ::
         ::    -> Gsasa                0.008583908523 Eh    ::
         ::    -> Ghb                 -0.048476364451 Eh    ::
         ::    -> Gshift               0.001080759698 Eh    ::
         :: repulsion energy           2.604813990403 Eh    ::
         :: add. restraining           0.000000000000 Eh    ::
         :: total charge              -0.000000000000 e     ::
         :::::::::::::::::::::::::::::::::::::::::::::::::::::

           -------------------------------------------------
          |                Property Printout                |
           -------------------------------------------------

    * Orbital Energies and Occupations

         #    Occupation            Energy/Eh            Energy/eV
      -------------------------------------------------------------
         1        2.0000           -0.7716854             -20.9986
       ...           ...                  ...                  ...
       193        2.0000           -0.4207441             -11.4490
       194        2.0000           -0.4184219             -11.3858
       195        2.0000           -0.4176521             -11.3649
       196        2.0000           -0.4170039             -11.3473
       197        2.0000           -0.4159992             -11.3199
       198        2.0000           -0.4107888             -11.1781
       199        2.0000           -0.4106384             -11.1740
       200        2.0000           -0.4049006             -11.0179
       201        2.0000           -0.4024400             -10.9510
       202        2.0000           -0.3943145             -10.7298
       203        2.0000           -0.3924270             -10.6785
       204        2.0000           -0.3839448             -10.4477
       205        2.0000           -0.3735280             -10.1642 (HOMO)
       206                         -0.3139613              -8.5433 (LUMO)
       207                         -0.2940343              -8.0011
       208                         -0.2440695              -6.6415
       209                         -0.2422936              -6.5931
       210                         -0.2376039              -6.4655
       211                         -0.2308057              -6.2805
       212                         -0.2280640              -6.2059
       213                         -0.2222452              -6.0476
       214                         -0.2213212              -6.0225
       215                         -0.1967676              -5.3543
       216                         -0.1624839              -4.4214
       ...                                ...                  ...
       368                          0.6946476              18.9023
      -------------------------------------------------------------
                  HL-Gap            0.0595667 Eh            1.6209 eV
             Fermi-level           -0.3437447 Eh           -9.3538 eV

     #   Z          covCN         q      C6AA      α(0)
     1   6 C        2.837     0.143    24.874     8.173
     2   6 C        2.970    -0.050    29.243     8.870
     3   6 C        2.966    -0.002    28.081     8.692
     4   6 C        2.931    -0.087    30.184     9.010
     5   6 C        2.836     0.144    24.852     8.170
     6   6 C        2.923    -0.080    30.009     8.983
     7   6 C        3.743     0.099    19.020     6.222
     8   6 C        3.722     0.098    19.063     6.235
     9   6 C        3.779     0.102    18.918     6.197
    10   6 C        3.746     0.096    19.053     6.226
    11   6 C        3.741     0.088    19.194     6.251
    12   8 O        1.694    -0.354    19.964     6.033
    13   6 C        3.683     0.075    19.516     6.326
    14   8 O        1.653    -0.502    22.942     6.466
    15   8 O        1.652    -0.464    22.124     6.349
    16   8 O        1.698    -0.339    19.692     5.991
    17   8 O        1.702    -0.296    18.919     5.873
    18   6 C        3.675     0.075    19.540     6.334
    19   8 O        1.654    -0.490    22.675     6.428
    20   6 C        3.646     0.252    17.012     5.927
    21   8 O        1.696    -0.362    20.113     6.055
    22   6 C        3.748     0.108    18.865     6.195
    23   6 C        3.721     0.093    19.144     6.249
    24   6 C        3.722     0.086    19.259     6.267
    25   6 C        3.750     0.088    19.186     6.247
    26   8 O        1.654    -0.489    22.654     6.425
    27   8 O        1.699    -0.325    19.438     5.952
    28   8 O        1.653    -0.496    22.814     6.448
    29   6 C        3.722     0.066    19.578     6.319
    30   8 O        1.703    -0.261    18.326     5.780
    31   6 C        2.746     0.359    20.904     7.486
    32   8 O        0.857    -0.478    23.314     6.474
    33   6 C        2.751     0.357    20.941     7.493
    34   6 C        2.896    -0.087    30.176     9.007
    35   8 O        0.858    -0.501    23.807     6.542
    36   6 C        2.905     0.004    27.937     8.667
    37   6 C        2.898    -0.039    28.977     8.826
    38   6 C        2.896    -0.010    28.272     8.718
    39   6 C        3.806    -0.080    22.028     6.681
    40   6 C        3.728     0.121    18.704     6.174
    41   6 C        2.893    -0.067    29.668     8.930
    42   8 O        1.652    -0.506    23.022     6.477
    43   6 C        2.898    -0.041    29.006     8.830
    44   6 C        2.898    -0.050    29.235     8.865
    45   6 C        2.896    -0.032    28.802     8.799
    46   6 C        3.805    -0.062    21.684     6.629
    47   6 C        3.802    -0.051    21.496     6.601
    48   6 C        3.800    -0.059    21.640     6.623
    49   6 C        3.799    -0.054    21.540     6.608
    50   6 C        3.751    -0.113    22.724     6.798
    51   8 O        1.655    -0.431    21.462     6.254
    52   8 O        1.657    -0.448    21.812     6.305
    53   6 C        3.644     0.238    17.206     5.962
    54   6 C        3.722     0.089    19.206     6.259
    55   6 C        3.723     0.100    19.033     6.230
    56   6 C        3.722     0.091    19.179     6.254
    57   6 C        3.738     0.104    18.941     6.210
    58   8 O        1.696    -0.365    20.161     6.062
    59   6 C        3.674     0.071    19.617     6.347
    60   8 O        1.653    -0.493    22.747     6.438
    61   8 O        1.654    -0.489    22.649     6.424
    62   8 O        1.654    -0.495    22.783     6.443
    63   8 O        1.652    -0.477    22.409     6.390
    64   6 C        2.975    -0.025    28.614     8.774
    65   6 C        2.925    -0.021    28.523     8.758
    66   6 C        2.926    -0.031    28.785     8.799
    67   6 C        2.975     0.026    27.412     8.588
    68   6 C        2.926    -0.029    28.724     8.789
    69   6 C        2.924    -0.020    28.517     8.757
    70   6 C        2.975     0.009    27.815     8.651
    71   6 C        2.928    -0.037    28.920     8.819
    72   6 C        2.920    -0.033    28.818     8.803
    73   6 C        2.925    -0.030    28.744     8.792
    74   6 C        2.920    -0.032    28.788     8.799
    75   6 C        2.928    -0.031    28.773     8.797
    76   1 H        0.926     0.070     2.088     2.260
    77   1 H        0.926     0.075     2.036     2.232
    78   1 H        0.924     0.042     2.424     2.435
    79   1 H        0.924     0.057     2.231     2.336
    80   1 H        0.923     0.051     2.302     2.372
    81   1 H        0.923     0.074     2.044     2.236
    82   1 H        0.924     0.053     2.286     2.365
    83   1 H        0.924     0.031     2.571     2.507
    84   1 H        0.924     0.066     2.134     2.284
    85   1 H        0.804     0.353     0.582     1.198
    86   1 H        0.802     0.318     0.670     1.286
    87   1 H        0.924     0.065     2.140     2.288
    88   1 H        0.924     0.048     2.339     2.392
    89   1 H        0.804     0.360     0.565     1.181
    90   1 H        0.923     0.004     2.991     2.705
    91   1 H        0.923     0.047     2.362     2.403
    92   1 H        0.923     0.056     2.242     2.341
    93   1 H        0.923     0.064     2.151     2.293
    94   1 H        0.924     0.088     1.902     2.157
    95   1 H        0.804     0.370     0.543     1.157
    96   1 H        0.803     0.378     0.526     1.140
    97   1 H        0.924     0.103     1.755     2.071
    98   1 H        0.924     0.087     1.907     2.159
    99   1 H        0.926     0.082     1.963     2.191
   100   1 H        0.926     0.077     2.010     2.217
   101   1 H        0.926     0.071     2.074     2.252
   102   1 H        0.926     0.068     2.109     2.271
   103   1 H        0.924     0.081     1.972     2.196
   104   1 H        0.924     0.064     2.158     2.297
   105   1 H        0.923     0.050     2.322     2.383
   106   1 H        0.926     0.057     2.240     2.340
   107   1 H        0.804     0.352     0.583     1.199
   108   1 H        0.926     0.027     2.626     2.534
   109   1 H        0.926     0.047     2.361     2.403
   110   1 H        0.926     0.017     2.782     2.608
   111   1 H        0.924     0.039     2.466     2.456
   112   1 H        0.924     0.041     2.430     2.438
   113   1 H        0.924     0.030     2.587     2.515
   114   1 H        0.924     0.030     2.589     2.516
   115   1 H        0.924     0.034     2.530     2.488
   116   1 H        0.924     0.024     2.678     2.559
   117   1 H        0.924     0.029     2.598     2.521
   118   1 H        0.924     0.027     2.631     2.537
   119   1 H        0.925     0.048     2.346     2.395
   120   1 H        0.924     0.034     2.526     2.485
   121   1 H        0.924     0.033     2.544     2.494
   122   1 H        0.802     0.330     0.639     1.256
   123   1 H        0.804     0.378     0.528     1.141
   124   1 H        0.923     0.002     3.018     2.717
   125   1 H        0.923     0.062     2.181     2.310
   126   1 H        0.923     0.031     2.573     2.509
   127   1 H        0.923     0.052     2.293     2.368
   128   1 H        0.923     0.013     2.838     2.634
   129   1 H        0.924     0.061     2.185     2.312
   130   1 H        0.924     0.086     1.919     2.166
   131   1 H        0.803     0.378     0.527     1.140
   132   1 H        0.804     0.378     0.527     1.140
   133   1 H        0.804     0.369     0.545     1.160
   134   1 H        0.801     0.313     0.684     1.299
   135   1 H        0.926     0.058     2.222     2.331
   136   1 H        0.926     0.060     2.194     2.316
   137   1 H        0.926     0.065     2.141     2.288
   138   1 H        0.926     0.058     2.220     2.330
   139   1 H        0.926     0.045     2.389     2.417
   140   1 H        0.926     0.045     2.388     2.416
   141   1 H        0.926     0.044     2.400     2.423
   142   1 H        0.926     0.043     2.409     2.427
   143   1 H        0.926     0.038     2.470     2.458

 Mol. C6AA /au·bohr⁶  :     205888.831354
 Mol. C8AA /au·bohr⁸  :    4732880.655220
 Mol. α(0) /au        :        686.282161


Wiberg/Mayer (AO) data.
largest (>0.10) Wiberg bond orders for each atom

 ---------------------------------------------------------------------------
     #   Z sym  total        # sym  WBO       # sym  WBO       # sym  WBO
 ---------------------------------------------------------------------------
     1   6 C    3.939 --     6 C    1.385     2 C    1.337    51 O    1.071
     2   6 C    3.969 --     3 C    1.382     1 C    1.337     7 C    0.991
     3   6 C    3.987 --     4 C    1.430     2 C    1.382    13 C    1.000
     4   6 C    3.981 --     3 C    1.430     5 C    1.360    76 H    0.961
     5   6 C    3.943 --     6 C    1.383     4 C    1.360    52 O    1.072
     6   6 C    3.979 --     1 C    1.385     5 C    1.383    77 H    0.962
     7   6 C    3.939 --     2 C    0.991    12 O    0.951     8 C    0.946
                            78 H    0.945
     8   6 C    3.954 --    15 O    1.004    79 H    0.957     9 C    0.956
                             7 C    0.946
     9   6 C    3.925 --    10 C    0.970     8 C    0.956    17 O    0.941
                            80 H    0.938
    10   6 C    3.933 --     9 C    0.970    16 O    0.958    11 C    0.958
                            81 H    0.955
    11   6 C    3.945 --    18 C    0.982    12 O    0.968    10 C    0.958
                            82 H    0.946
    12   8 O    2.054 --    11 C    0.968     7 C    0.951
    13   6 C    3.955 --     3 C    1.000    14 O    0.995    83 H    0.959
                            84 H    0.953
    14   8 O    1.919 --    13 C    0.995    85 H    0.862
    15   8 O    1.959 --     8 C    1.004    86 H    0.848
    16   8 O    2.077 --    20 C    0.979    10 C    0.958
    17   8 O    2.261 --    33 C    1.087     9 C    0.941    35 O    0.138
    18   6 C    3.958 --    19 O    1.010    11 C    0.982    87 H    0.967
                            88 H    0.966
    19   8 O    1.922 --    18 C    1.010    89 H    0.854
    20   6 C    3.923 --    16 O    0.979    21 O    0.956    25 C    0.955
                            90 H    0.938
    21   8 O    2.061 --    20 C    0.956    22 C    0.947
    22   6 C    3.933 --    29 C    0.976    23 C    0.970    91 H    0.949
                            21 O    0.947
    23   6 C    3.965 --    28 O    1.006    22 C    0.970    24 C    0.967
                            92 H    0.956
    24   6 C    3.958 --    26 O    1.000    23 C    0.967    25 C    0.961
                            93 H    0.945
    25   6 C    3.936 --    27 O    0.965    24 C    0.961    20 C    0.955
                            94 H    0.953
    26   8 O    1.926 --    24 C    1.000    95 H    0.845
    27   8 O    2.088 --    53 C    0.982    25 C    0.965
    28   8 O    1.913 --    23 C    1.006    96 H    0.834
    29   6 C    3.918 --    22 C    0.976    97 H    0.961    98 H    0.958
                            30 O    0.957
    30   8 O    2.305 --    31 C    1.122    29 C    0.957    32 O    0.148
    31   6 C    3.886 --    32 O    1.637    30 O    1.122    64 C    1.019
    32   8 O    2.001 --    31 C    1.637    30 O    0.148
    33   6 C    3.892 --    35 O    1.605    17 O    1.087    34 C    1.086
    34   6 C    3.964 --    36 C    1.696    33 C    1.086    99 H    0.961
                            38 C    0.110
    35   8 O    1.977 --    33 C    1.605    17 O    0.138
    36   6 C    3.968 --    34 C    1.696    37 C    1.170   100 H    0.952
    37   6 C    3.985 --    38 C    1.757    36 C    1.170   101 H    0.958
    38   6 C    3.969 --    37 C    1.757    39 C    1.049   102 H    0.961
                            34 C    0.110
    39   6 C    3.983 --    38 C    1.049   104 H    0.969   103 H    0.957
                            40 C    0.931
    40   6 C    3.941 --    41 C    1.008    42 O    0.988   105 H    0.951
                            39 C    0.931
    41   6 C    3.976 --    43 C    1.829    40 C    1.008   106 H    0.962
                            45 C    0.125
    42   8 O    1.925 --    40 C    0.988   107 H    0.860
    43   6 C    3.991 --    41 C    1.829    44 C    1.121   108 H    0.959
    44   6 C    3.988 --    45 C    1.828    43 C    1.121   109 H    0.962
    45   6 C    3.985 --    44 C    1.828    46 C    1.032   110 H    0.966
                            41 C    0.125
    46   6 C    3.995 --    45 C    1.032    47 C    0.983   111 H    0.973
                           112 H    0.962
    47   6 C    3.988 --    48 C    1.006    46 C    0.983   114 H    0.976
                           113 H    0.975
    48   6 C    3.995 --    49 C    1.006    47 C    1.006   116 H    0.977
                           115 H    0.976
    49   6 C    3.996 --    50 C    1.021    48 C    1.006   117 H    0.977
                           118 H    0.977
    50   6 C    3.994 --    49 C    1.021   121 H    0.987   120 H    0.987
                           119 H    0.979
    51   8 O    2.091 --     1 C    1.071   122 H    0.839
    52   8 O    2.078 --     5 C    1.072   123 H    0.838
    53   6 C    3.921 --    27 O    0.982    54 C    0.955    58 O    0.953
                           124 H    0.945
    54   6 C    3.957 --    62 O    1.000    55 C    0.969   125 H    0.955
                            53 C    0.955
    55   6 C    3.966 --    61 O    1.004    54 C    0.969    56 C    0.967
                           126 H    0.960
    56   6 C    3.967 --    60 O    1.008    55 C    0.967    57 C    0.967
                           127 H    0.957
    57   6 C    3.936 --    59 C    0.983    56 C    0.967   128 H    0.948
                            58 O    0.946
    58   8 O    2.060 --    53 C    0.953    57 C    0.946
    59   6 C    3.949 --    63 O    1.003    57 C    0.983   130 H    0.965
                           129 H    0.961
    60   8 O    1.915 --    56 C    1.008   131 H    0.834
    61   8 O    1.925 --    55 C    1.004   132 H    0.840
    62   8 O    1.918 --    54 C    1.000   133 H    0.846
    63   8 O    1.935 --    59 C    1.003   134 H    0.848
    64   6 C    3.974 --    69 C    1.371    65 C    1.367    31 C    1.019
    65   6 C    3.986 --    66 C    1.470    64 C    1.367   135 H    0.963
    66   6 C    3.989 --    65 C    1.470    67 C    1.374   136 H    0.962
    67   6 C    3.985 --    66 C    1.374    68 C    1.373    70 C    1.055
    68   6 C    3.988 --    69 C    1.470    67 C    1.373   137 H    0.963
    69   6 C    3.986 --    68 C    1.470    64 C    1.371   138 H    0.964
    70   6 C    3.987 --    71 C    1.383    75 C    1.381    67 C    1.055
                            73 C    0.104
    71   6 C    3.988 --    72 C    1.454    70 C    1.383   139 H    0.966
                            74 C    0.107
    72   6 C    3.991 --    71 C    1.454    73 C    1.432   140 H    0.969
                            75 C    0.107
    73   6 C    3.983 --    74 C    1.433    72 C    1.432   141 H    0.970
                            70 C    0.104
    74   6 C    3.991 --    75 C    1.455    73 C    1.433   142 H    0.969
                            71 C    0.107
    75   6 C    3.988 --    74 C    1.455    70 C    1.381   143 H    0.965
                            72 C    0.107
    76   1 H    0.995 --     4 C    0.961
    77   1 H    0.994 --     6 C    0.962
    78   1 H    0.998 --     7 C    0.945
    79   1 H    0.997 --     8 C    0.957
    80   1 H    0.997 --     9 C    0.938
    81   1 H    0.994 --    10 C    0.955
    82   1 H    0.997 --    11 C    0.946
    83   1 H    0.999 --    13 C    0.959
    84   1 H    0.996 --    13 C    0.953
    85   1 H    0.875 --    14 O    0.862
    86   1 H    0.899 --    15 O    0.848
    87   1 H    0.995 --    18 C    0.967
    88   1 H    0.998 --    18 C    0.966
    89   1 H    0.870 --    19 O    0.854
    90   1 H    1.000 --    20 C    0.938
    91   1 H    0.998 --    22 C    0.949
    92   1 H    0.997 --    23 C    0.956
    93   1 H    0.996 --    24 C    0.945
    94   1 H    0.992 --    25 C    0.953
    95   1 H    0.862 --    26 O    0.845
    96   1 H    0.857 --    28 O    0.834
    97   1 H    0.988 --    29 C    0.961
    98   1 H    0.992 --    29 C    0.958
    99   1 H    0.993 --    34 C    0.961
   100   1 H    0.994 --    36 C    0.952
   101   1 H    0.995 --    37 C    0.958
   102   1 H    0.995 --    38 C    0.961
   103   1 H    0.988 --    39 C    0.957
   104   1 H    0.996 --    39 C    0.969
   105   1 H    0.997 --    40 C    0.951
   106   1 H    0.997 --    41 C    0.962
   107   1 H    0.876 --    42 O    0.860
   108   1 H    0.999 --    43 C    0.959
   109   1 H    0.998 --    44 C    0.962
   110   1 H    1.000 --    45 C    0.966
   111   1 H    0.998 --    46 C    0.973
   112   1 H    0.995 --    46 C    0.962
   113   1 H    0.999 --    47 C    0.975
   114   1 H    0.999 --    47 C    0.976
   115   1 H    0.999 --    48 C    0.976
   116   1 H    0.999 --    48 C    0.977
   117   1 H    0.999 --    49 C    0.977
   118   1 H    0.999 --    49 C    0.977
   119   1 H    0.998 --    50 C    0.979
   120   1 H    0.998 --    50 C    0.987
   121   1 H    0.999 --    50 C    0.987
   122   1 H    0.891 --    51 O    0.839
   123   1 H    0.857 --    52 O    0.838
   124   1 H    1.000 --    53 C    0.945
   125   1 H    0.996 --    54 C    0.955
   126   1 H    0.999 --    55 C    0.960
   127   1 H    0.997 --    56 C    0.957
   128   1 H    1.000 --    57 C    0.948
   129   1 H    0.995 --    59 C    0.961
   130   1 H    0.992 --    59 C    0.965
   131   1 H    0.857 --    60 O    0.834
   132   1 H    0.857 --    61 O    0.840
   133   1 H    0.863 --    62 O    0.846
   134   1 H    0.902 --    63 O    0.848
   135   1 H    0.996 --    65 C    0.963
   136   1 H    0.996 --    66 C    0.962
   137   1 H    0.995 --    68 C    0.963
   138   1 H    0.996 --    69 C    0.964
   139   1 H    0.998 --    71 C    0.966
   140   1 H    0.997 --    72 C    0.969
   141   1 H    0.998 --    73 C    0.970
   142   1 H    0.998 --    74 C    0.969
   143   1 H    0.999 --    75 C    0.965
 ---------------------------------------------------------------------------

Topologies differ in total number of bonds
Writing topology from bond orders to xtbtopo.mol

molecular dipole:
                 x           y           z       tot (Debye)
 q only:       -1.824      -3.545      -2.357
   full:       -1.228      -3.524      -2.827      11.900
molecular quadrupole (traceless):
                xx          xy          yy          xz          yz          zz
 q only:        3.232      -5.046       4.739       3.351       8.294      -7.970
  q+dip:        2.584      -3.620      -5.613       6.594       6.296       3.030
   full:        3.190      -5.059      -8.036       2.244       9.354       4.845


           -------------------------------------------------
          | TOTAL ENERGY             -235.744978349640 Eh   |
          | GRADIENT NORM               0.127916852179 Eh/α |
          | HOMO-LUMO GAP               1.620892520467 eV   |
           -------------------------------------------------

------------------------------------------------------------------------
 * finished run on 2026/06/19 at 18:52:40.504     
------------------------------------------------------------------------
 total:
 * wall-time:     0 d,  0 h,  0 min,  0.303 sec
 *  cpu-time:     0 d,  0 h,  0 min,  4.608 sec
 * ratio c/w:    15.226 speedup
 SCF:
 * wall-time:     0 d,  0 h,  0 min,  0.248 sec
 *  cpu-time:     0 d,  0 h,  0 min,  3.897 sec
 * ratio c/w:    15.746 speedup

normal termination of xtb
