      -----------------------------------------------------------      
     |                   =====================                   |     
     |                           x T B                           |     
     |                   =====================                   |     
     |                         S. Grimme                         |     
     |          Mulliken Center for Theoretical Chemistry        |     
     |                    University of Bonn                     |     
      -----------------------------------------------------------      

   * xtb version 6.7.1 (edcfbbe) compiled by 'albert@albert-system' on 2024-07-22

   xtb is free software: you can redistribute it and/or modify it under
   the terms of the GNU Lesser General Public License as published by
   the Free Software Foundation, either version 3 of the License, or
   (at your option) any later version.
   
   xtb is distributed in the hope that it will be useful,
   but WITHOUT ANY WARRANTY; without even the implied warranty of
   MERCHANTABILITY or FITNESS FOR A PARTICULAR PURPOSE.  See the
   GNU Lesser General Public License for more details.
   
   Cite this work as:
   * C. Bannwarth, E. Caldeweyher, S. Ehlert, A. Hansen, P. Pracht,
     J. Seibert, S. Spicher, S. Grimme, WIREs Comput. Mol. Sci., 2020, 11,
     e01493. DOI: 10.1002/wcms.1493
   
   for GFN2-xTB:
   * C. Bannwarth, S. Ehlert and S. Grimme., J. Chem. Theory Comput., 2019,
     15, 1652-1671. DOI: 10.1021/acs.jctc.8b01176
   for GFN1-xTB:
   * S. Grimme, C. Bannwarth, P. Shushkov, J. Chem. Theory Comput., 2017,
     13, 1989-2009. DOI: 10.1021/acs.jctc.7b00118
   for GFN0-xTB:
   * P. Pracht, E. Caldeweyher, S. Ehlert, S. Grimme, ChemRxiv, 2019, preprint.
     DOI: 10.26434/chemrxiv.8326202.v1
   for GFN-FF:
   * S. Spicher and S. Grimme, Angew. Chem. Int. Ed., 2020, 59, 15665-15673.
     DOI: 10.1002/anie.202004239
   
   for ALPB and GBSA implicit solvation:
   * S. Ehlert, M. Stahn, S. Spicher, S. Grimme, J. Chem. Theory Comput.,
     2021, 17, 4250-4261. DOI: 10.1021/acs.jctc.1c00471
   
   for ddCOSMO and CPCM-X implicit solvation:
   * M. Stahn, S. Ehlert, S. Grimme, J. Phys. Chem. A,
     2023, XX, XXXX-XXXX. DOI: 10.1021/acs.jpca.3c04382
   
   for DFT-D4:
   * E. Caldeweyher, C. Bannwarth and S. Grimme, J. Chem. Phys., 2017,
     147, 034112. DOI: 10.1063/1.4993215
   * E. Caldeweyher, S. Ehlert, A. Hansen, H. Neugebauer, S. Spicher,
     C. Bannwarth and S. Grimme, J. Chem. Phys., 2019, 150, 154122.
     DOI: 10.1063/1.5090222
   * E. Caldeweyher, J.-M. Mewes, S. Ehlert and S. Grimme, Phys. Chem. Chem. Phys.
     2020, 22, 8499-8512. DOI: 10.1039/D0CP00502A
   
   for sTDA-xTB:
   * S. Grimme and C. Bannwarth, J. Chem. Phys., 2016, 145, 054103.
     DOI: 10.1063/1.4959605
   
   in the mass-spec context:
   * V. Asgeirsson, C. Bauer and S. Grimme, Chem. Sci., 2017, 8, 4879.
     DOI: 10.1039/c7sc00601b
   * J. Koopman and S. Grimme, ACS Omega 2019, 4, 12, 15120-15133.
     DOI: 10.1021/acsomega.9b02011
   
   for metadynamics refer to:
   * S. Grimme, J. Chem. Theory Comput., 2019, 155, 2847-2862
     DOI: 10.1021/acs.jctc.9b00143
   
   for SPH calculations refer to:
   * S. Spicher and S. Grimme, J. Chem. Theory Comput., 2021, 17, 1701-1714
     DOI: 10.1021/acs.jctc.0c01306
   
   for ONIOM refer to:
   * C. Plett, A. Katbashev, S. Ehlert, S. Grimme, M. Bursch,
     Phys. Chem. Chem. Phys., 2023, 25, 17860-17868. DOI: 10.1039/D3CP02178E
   
   for DIPRO refer to:
   * J. Kohn, N. Gildemeister, S. Grimme, D. Fazzi, A. Hansen,
     J. Chem. Phys., 2023, just accepted.
   
   for PTB refer to:
   * S. Grimme, M. Mueller, A. Hansen, J. Chem. Phys., 2023, 158, 124111.
     DOI: 10.1063/5.0137838
   
   with help from (in alphabetical order)
   P. Atkinson, C. Bannwarth, F. Bohle, G. Brandenburg, E. Caldeweyher
   M. Checinski, S. Dohm, S. Ehlert, S. Ehrlich, I. Gerasimov, C. Hölzer
   A. Katbashev, J. Kohn, J. Koopman, C. Lavigne, S. Lehtola, F. März, M. Müller,
   F. Musil, H. Neugebauer, J. Pisarek, C. Plett, P. Pracht, F. Pultar,
   J. Seibert, P. Shushkov, S. Spicher, M. Stahn, M. Steiner, T. Strunk,
   J. Stückrath, T. Rose, and J. Unsleber
   
 * started run on 2026/06/19 at 18:52:37.826     
   ID    Z sym.   atoms
    1    6 C      1-11, 13, 18, 20, 22-25, 29, 31, 33, 34, 36-41, 43-50,
                  53-57, 59, 64-75
    2    8 O      12, 14-17, 19, 21, 26-28, 30, 32, 35, 42, 51, 52, 58, 60-63
    3    1 H      76-143

           -------------------------------------------------
          |                Calculation Setup                |
           -------------------------------------------------

          program call               : xtb PAPU-0080/conf01.xyz --gfn 2 --alpb octanol --chrg 0 --uhf 0 --namespace PAPU-0080/conf01_octanol
          hostname                   : cpu10
          calculation namespace      : PAPU-0080/conf01_octanol
          coordinate file            : PAPU-0080/conf01.xyz
          omp threads                :                    16


           -------------------------------------------------
          |                 G F N 2 - x T B                 |
           -------------------------------------------------

        Reference                      10.1021/acs.jctc.8b01176
      * Hamiltonian:
        H0-scaling (s, p, d)           1.850000    2.230000    2.230000
        zeta-weighting                 0.500000
      * Dispersion:
        s8                             2.700000
        a1                             0.520000
        a2                             5.000000
        s9                             5.000000
      * Repulsion:
        kExp                           1.500000    1.000000
        rExp                           1.000000
      * Coulomb:
        alpha                          2.000000
        third order                    shell-resolved
        anisotropic                    true
        a3                             3.000000
        a5                             4.000000
        cn-shift                       1.200000
        cn-exp                         4.000000
        max-rad                        5.000000

      * Solvation model:               ALPB
        Solvent                        octanol
        Parameter file                 internal GFN2-xTB/ALPB
        Dielectric constant                9.8629E+00
        Reference state                gsolv [1 M gas/solution]
        Free energy shift                  2.3397E-03 Eh       1.4682E+00 kcal/mol
        Temperature                        2.9815E+02 K
        Density                            8.3000E-01 kg/L
        Solvent mass                       1.3023E+02 g/mol
        Interaction kernel             P16
        Born radius scaling (c1)           1.5898E+00
        Born radii integrator          GBOBC
        Born offset                        0.0000E+00 a0       0.0000E+00 AA
        H-bond correction              true
        Ion screening                  false
        Surface tension                    1.0000E-05 Eh       1.5569E+01 dyn/cm
        Grid points                               230 per atom

          ...................................................
          :                      SETUP                      :
          :.................................................:
          :  # basis functions                 368          :
          :  # atomic orbitals                 368          :
          :  # shells                          218          :
          :  # electrons                       410          :
          :  max. iterations                   250          :
          :  Hamiltonian                  GFN2-xTB          :
          :  restarted?                      false          :
          :  GBSA solvation                   true          :
          :  PC potential                    false          :
          :  electronic temp.          300.0000000     K    :
          :  accuracy                    1.0000000          :
          :  -> integral cutoff          0.2500000E+02      :
          :  -> integral neglect         0.1000000E-07      :
          :  -> SCF convergence          0.1000000E-05 Eh   :
          :  -> wf. convergence          0.1000000E-03 e    :
          :  Broyden damping             0.4000000          :
          :  net charge                          0          :
          :  unpaired electrons                  0          :
          ...................................................

 iter      E             dE          RMSdq      gap      omega  full diag
   1   -238.1428814 -0.238143E+03  0.442E+00    2.34       0.0  T
   2   -238.3561084 -0.213227E+00  0.244E+00    1.67       1.0  T
   3   -238.3355094  0.205990E-01  0.102E+00    1.78       1.0  T
   4   -238.3755780 -0.400686E-01  0.312E-01    1.55       1.0  T
   5   -238.3821264 -0.654842E-02  0.131E-01    1.55       1.0  T
   6   -238.3831428 -0.101631E-02  0.622E-02    1.56       1.0  T
   7   -238.3832829 -0.140103E-03  0.273E-02    1.56       1.0  T
   8   -238.3833116 -0.287096E-04  0.118E-02    1.56       1.0  T
   9   -238.3833161 -0.454297E-05  0.604E-03    1.56       1.4  T
  10   -238.3833183 -0.214988E-05  0.277E-03    1.56       3.0  T
  11   -238.3833185 -0.261638E-06  0.137E-03    1.56       6.1  T
  12   -238.3833186 -0.455206E-07  0.532E-04    1.56      15.7  T
  13   -238.3833186 -0.102471E-07  0.238E-04    1.56      35.2  T

   *** convergence criteria satisfied after 13 iterations ***

         #    Occupation            Energy/Eh            Energy/eV
      -------------------------------------------------------------
         1        2.0000           -0.7709727             -20.9792
       ...           ...                  ...                  ...
       199        2.0000           -0.4072689             -11.0824
       200        2.0000           -0.4060538             -11.0493
       201        2.0000           -0.4024249             -10.9505
       202        2.0000           -0.3983009             -10.8383
       203        2.0000           -0.3974646             -10.8156
       204        2.0000           -0.3877337             -10.5508
       205        2.0000           -0.3686601             -10.0318 (HOMO)
       206                         -0.3114013              -8.4737 (LUMO)
       207                         -0.2997439              -8.1564
       208                         -0.2434620              -6.6249
       209                         -0.2424404              -6.5971
       210                         -0.2404957              -6.5442
       ...                                ...                  ...
       368                          0.6923003              18.8384
      -------------------------------------------------------------
                  HL-Gap            0.0572588 Eh            1.5581 eV
             Fermi-level           -0.3400307 Eh           -9.2527 eV

 SCC (total)                   0 d,  0 h,  0 min,  0.247 sec
 SCC setup                      ...        0 min,  0.003 sec (  1.401%)
 Dispersion                     ...        0 min,  0.004 sec (  1.751%)
 classical contributions        ...        0 min,  0.000 sec (  0.069%)
 integral evaluation            ...        0 min,  0.012 sec (  4.912%)
 iterations                     ...        0 min,  0.187 sec ( 75.872%)
 molecular gradient             ...        0 min,  0.037 sec ( 15.159%)
 printout                       ...        0 min,  0.002 sec (  0.819%)

         :::::::::::::::::::::::::::::::::::::::::::::::::::::
         ::                     SUMMARY                     ::
         :::::::::::::::::::::::::::::::::::::::::::::::::::::
         :: total energy            -235.764194369014 Eh    ::
         :: total w/o Gsasa/hb      -235.686040594881 Eh    ::
         :: gradient norm              0.123817468317 Eh/a0 ::
         :: HOMO-LUMO gap              1.558092133541 eV    ::
         ::.................................................::
         :: SCC energy              -238.368531564368 Eh    ::
         :: -> isotropic ES            0.537063104928 Eh    ::
         :: -> anisotropic ES         -0.034547691754 Eh    ::
         :: -> anisotropic XC          0.022632131324 Eh    ::
         :: -> dispersion             -0.201479890158 Eh    ::
         :: -> Gsolv                  -0.111816689942 Eh    ::
         ::    -> Gelec               -0.033662915808 Eh    ::
         ::    -> Gsasa               -0.029975176032 Eh    ::
         ::    -> Ghb                 -0.050518267478 Eh    ::
         ::    -> Gshift               0.002339669376 Eh    ::
         :: repulsion energy           2.604337195354 Eh    ::
         :: add. restraining           0.000000000000 Eh    ::
         :: total charge               0.000000000000 e     ::
         :::::::::::::::::::::::::::::::::::::::::::::::::::::

           -------------------------------------------------
          |                Property Printout                |
           -------------------------------------------------

    * Orbital Energies and Occupations

         #    Occupation            Energy/Eh            Energy/eV
      -------------------------------------------------------------
         1        2.0000           -0.7709727             -20.9792
       ...           ...                  ...                  ...
       193        2.0000           -0.4229997             -11.5104
       194        2.0000           -0.4207974             -11.4505
       195        2.0000           -0.4181131             -11.3774
       196        2.0000           -0.4169186             -11.3449
       197        2.0000           -0.4115077             -11.1977
       198        2.0000           -0.4088144             -11.1244
       199        2.0000           -0.4072689             -11.0824
       200        2.0000           -0.4060538             -11.0493
       201        2.0000           -0.4024249             -10.9505
       202        2.0000           -0.3983009             -10.8383
       203        2.0000           -0.3974646             -10.8156
       204        2.0000           -0.3877337             -10.5508
       205        2.0000           -0.3686601             -10.0318 (HOMO)
       206                         -0.3114013              -8.4737 (LUMO)
       207                         -0.2997439              -8.1564
       208                         -0.2434620              -6.6249
       209                         -0.2424404              -6.5971
       210                         -0.2404957              -6.5442
       211                         -0.2362469              -6.4286
       212                         -0.2301564              -6.2629
       213                         -0.2271017              -6.1798
       214                         -0.2233977              -6.0790
       215                         -0.1974448              -5.3727
       216                         -0.1630026              -4.4355
       ...                                ...                  ...
       368                          0.6923003              18.8384
      -------------------------------------------------------------
                  HL-Gap            0.0572588 Eh            1.5581 eV
             Fermi-level           -0.3400307 Eh           -9.2527 eV

     #   Z          covCN         q      C6AA      α(0)
     1   6 C        2.838     0.145    24.847     8.169
     2   6 C        2.970    -0.046    29.144     8.855
     3   6 C        2.966     0.012    27.753     8.641
     4   6 C        2.930    -0.088    30.204     9.013
     5   6 C        2.836     0.150    24.741     8.151
     6   6 C        2.923    -0.081    30.033     8.987
     7   6 C        3.745     0.099    19.016     6.221
     8   6 C        3.723     0.092    19.160     6.251
     9   6 C        3.778     0.100    18.954     6.203
    10   6 C        3.748     0.093    19.108     6.235
    11   6 C        3.742     0.086    19.223     6.255
    12   8 O        1.695    -0.349    19.882     6.020
    13   6 C        3.682     0.070    19.611     6.341
    14   8 O        1.653    -0.498    22.843     6.452
    15   8 O        1.652    -0.466    22.179     6.357
    16   8 O        1.698    -0.335    19.620     5.980
    17   8 O        1.702    -0.309    19.147     5.908
    18   6 C        3.675     0.071    19.605     6.344
    19   8 O        1.654    -0.475    22.358     6.383
    20   6 C        3.648     0.249    17.039     5.930
    21   8 O        1.695    -0.359    20.063     6.047
    22   6 C        3.746     0.104    18.939     6.208
    23   6 C        3.721     0.088    19.224     6.262
    24   6 C        3.722     0.083    19.310     6.276
    25   6 C        3.754     0.085    19.230     6.253
    26   8 O        1.654    -0.479    22.443     6.395
    27   8 O        1.699    -0.322    19.389     5.945
    28   8 O        1.653    -0.483    22.532     6.408
    29   6 C        3.725     0.062    19.645     6.329
    30   8 O        1.703    -0.258    18.269     5.771
    31   6 C        2.749     0.361    20.883     7.483
    32   8 O        0.857    -0.483    23.411     6.487
    33   6 C        2.751     0.356    20.951     7.495
    34   6 C        2.896    -0.094    30.353     9.033
    35   8 O        0.858    -0.485    23.449     6.492
    36   6 C        2.906     0.000    28.022     8.680
    37   6 C        2.898    -0.043    29.056     8.838
    38   6 C        2.897    -0.016    28.411     8.739
    39   6 C        3.806    -0.082    22.066     6.687
    40   6 C        3.728     0.117    18.765     6.184
    41   6 C        2.895    -0.072    29.795     8.950
    42   8 O        1.652    -0.493    22.736     6.437
    43   6 C        2.896    -0.038    28.938     8.820
    44   6 C        2.899    -0.056    29.391     8.889
    45   6 C        2.893    -0.030    28.737     8.789
    46   6 C        3.805    -0.060    21.657     6.625
    47   6 C        3.799    -0.066    21.773     6.644
    48   6 C        3.800    -0.063    21.707     6.634
    49   6 C        3.799    -0.052    21.506     6.603
    50   6 C        3.751    -0.108    22.620     6.783
    51   8 O        1.655    -0.431    21.460     6.254
    52   8 O        1.657    -0.435    21.532     6.264
    53   6 C        3.650     0.232    17.263     5.968
    54   6 C        3.722     0.084    19.286     6.271
    55   6 C        3.723     0.095    19.110     6.243
    56   6 C        3.721     0.088    19.221     6.261
    57   6 C        3.741     0.103    18.962     6.213
    58   8 O        1.696    -0.357    20.012     6.040
    59   6 C        3.675     0.072    19.596     6.343
    60   8 O        1.653    -0.481    22.478     6.400
    61   8 O        1.654    -0.478    22.417     6.391
    62   8 O        1.654    -0.483    22.522     6.406
    63   8 O        1.654    -0.480    22.464     6.398
    64   6 C        2.974    -0.031    28.761     8.797
    65   6 C        2.925    -0.025    28.634     8.775
    66   6 C        2.927    -0.030    28.753     8.794
    67   6 C        2.975     0.026    27.416     8.589
    68   6 C        2.926    -0.035    28.877     8.813
    69   6 C        2.925    -0.022    28.556     8.763
    70   6 C        2.974     0.006    27.875     8.660
    71   6 C        2.928    -0.033    28.814     8.803
    72   6 C        2.920    -0.029    28.722     8.789
    73   6 C        2.924    -0.026    28.650     8.778
    74   6 C        2.920    -0.032    28.790     8.799
    75   6 C        2.928    -0.038    28.934     8.821
    76   1 H        0.926     0.065     2.137     2.286
    77   1 H        0.926     0.085     1.933     2.174
    78   1 H        0.924     0.037     2.491     2.468
    79   1 H        0.924     0.081     1.972     2.196
    80   1 H        0.923     0.062     2.179     2.309
    81   1 H        0.923     0.070     2.089     2.261
    82   1 H        0.924     0.051     2.306     2.375
    83   1 H        0.924     0.042     2.422     2.434
    84   1 H        0.924     0.035     2.512     2.479
    85   1 H        0.804     0.346     0.598     1.215
    86   1 H        0.802     0.311     0.689     1.304
    87   1 H        0.924     0.068     2.113     2.273
    88   1 H        0.924     0.045     2.385     2.415
    89   1 H        0.803     0.351     0.586     1.203
    90   1 H        0.923     0.016     2.793     2.614
    91   1 H        0.923     0.052     2.292     2.367
    92   1 H        0.923     0.053     2.279     2.361
    93   1 H        0.923     0.059     2.206     2.323
    94   1 H        0.923     0.087     1.911     2.162
    95   1 H        0.804     0.361     0.563     1.179
    96   1 H        0.803     0.368     0.547     1.162
    97   1 H        0.924     0.100     1.781     2.087
    98   1 H        0.924     0.090     1.879     2.144
    99   1 H        0.926     0.081     1.967     2.193
   100   1 H        0.926     0.073     2.052     2.240
   101   1 H        0.926     0.071     2.076     2.253
   102   1 H        0.926     0.068     2.112     2.273
   103   1 H        0.924     0.076     2.019     2.222
   104   1 H        0.924     0.060     2.194     2.317
   105   1 H        0.923     0.051     2.312     2.378
   106   1 H        0.926     0.053     2.285     2.364
   107   1 H        0.804     0.338     0.618     1.235
   108   1 H        0.926     0.024     2.670     2.555
   109   1 H        0.926     0.042     2.416     2.430
   110   1 H        0.926     0.035     2.521     2.483
   111   1 H        0.924     0.044     2.403     2.424
   112   1 H        0.924     0.044     2.397     2.421
   113   1 H        0.923     0.042     2.427     2.437
   114   1 H        0.924     0.038     2.472     2.459
   115   1 H        0.924     0.035     2.519     2.482
   116   1 H        0.924     0.028     2.622     2.532
   117   1 H        0.924     0.031     2.573     2.509
   118   1 H        0.924     0.020     2.728     2.583
   119   1 H        0.924     0.033     2.551     2.498
   120   1 H        0.924     0.038     2.480     2.463
   121   1 H        0.924     0.037     2.495     2.470
   122   1 H        0.802     0.325     0.651     1.268
   123   1 H        0.804     0.361     0.563     1.179
   124   1 H        0.923     0.015     2.816     2.624
   125   1 H        0.923     0.060     2.200     2.320
   126   1 H        0.923     0.034     2.536     2.490
   127   1 H        0.923     0.055     2.255     2.349
   128   1 H        0.923     0.011     2.873     2.651
   129   1 H        0.924     0.062     2.181     2.309
   130   1 H        0.924     0.050     2.315     2.379
   131   1 H        0.803     0.372     0.540     1.155
   132   1 H        0.804     0.368     0.548     1.163
   133   1 H        0.804     0.359     0.569     1.184
   134   1 H        0.803     0.359     0.568     1.184
   135   1 H        0.926     0.061     2.182     2.310
   136   1 H        0.926     0.069     2.093     2.262
   137   1 H        0.926     0.064     2.152     2.294
   138   1 H        0.926     0.057     2.230     2.335
   139   1 H        0.926     0.044     2.394     2.419
   140   1 H        0.926     0.045     2.382     2.414
   141   1 H        0.926     0.046     2.368     2.406
   142   1 H        0.926     0.045     2.377     2.411
   143   1 H        0.926     0.044     2.391     2.418

 Mol. C6AA /au·bohr⁶  :     205733.654492
 Mol. C8AA /au·bohr⁸  :    4730574.994951
 Mol. α(0) /au        :        686.048567


Wiberg/Mayer (AO) data.
largest (>0.10) Wiberg bond orders for each atom

 ---------------------------------------------------------------------------
     #   Z sym  total        # sym  WBO       # sym  WBO       # sym  WBO
 ---------------------------------------------------------------------------
     1   6 C    3.938 --     6 C    1.387     2 C    1.335    51 O    1.068
     2   6 C    3.971 --     3 C    1.387     1 C    1.335     7 C    0.992
     3   6 C    3.987 --     4 C    1.432     2 C    1.387    13 C    1.001
     4   6 C    3.982 --     3 C    1.432     5 C    1.358    76 H    0.962
     5   6 C    3.944 --     6 C    1.382     4 C    1.358    52 O    1.075
     6   6 C    3.978 --     1 C    1.387     5 C    1.382    77 H    0.961
     7   6 C    3.938 --     2 C    0.992    12 O    0.948     8 C    0.947
                            78 H    0.944
     8   6 C    3.948 --    15 O    0.998     9 C    0.956    79 H    0.951
                             7 C    0.947
     9   6 C    3.924 --    10 C    0.972     8 C    0.956    17 O    0.939
                            80 H    0.937
    10   6 C    3.935 --     9 C    0.972    11 C    0.959    16 O    0.958
                            81 H    0.956
    11   6 C    3.944 --    18 C    0.982    12 O    0.966    10 C    0.959
                            82 H    0.949
    12   8 O    2.067 --    11 C    0.966     7 C    0.948
    13   6 C    3.954 --     3 C    1.001    14 O    0.980    84 H    0.968
                            83 H    0.956
    14   8 O    1.918 --    13 C    0.980    85 H    0.866
    15   8 O    1.964 --     8 C    0.998    86 H    0.853
    16   8 O    2.082 --    20 C    0.980    10 C    0.958
    17   8 O    2.234 --    33 C    1.064     9 C    0.939    35 O    0.137
    18   6 C    3.960 --    19 O    1.012    11 C    0.982    87 H    0.967
                            88 H    0.966
    19   8 O    1.930 --    18 C    1.012    89 H    0.857
    20   6 C    3.923 --    16 O    0.980    25 C    0.956    21 O    0.956
                            90 H    0.941
    21   8 O    2.061 --    20 C    0.956    22 C    0.949
    22   6 C    3.933 --    29 C    0.977    23 C    0.970    21 O    0.949
                            91 H    0.948
    23   6 C    3.966 --    28 O    1.007    22 C    0.970    24 C    0.966
                            92 H    0.957
    24   6 C    3.959 --    26 O    1.001    23 C    0.966    25 C    0.963
                            93 H    0.949
    25   6 C    3.938 --    27 O    0.966    24 C    0.963    20 C    0.956
                            94 H    0.953
    26   8 O    1.933 --    24 C    1.001    95 H    0.851
    27   8 O    2.089 --    53 C    0.982    25 C    0.966
    28   8 O    1.922 --    23 C    1.007    96 H    0.841
    29   6 C    3.919 --    22 C    0.977    97 H    0.962    30 O    0.959
                            98 H    0.957
    30   8 O    2.305 --    31 C    1.120    29 C    0.959    32 O    0.146
    31   6 C    3.886 --    32 O    1.629    30 O    1.120    64 C    1.027
    32   8 O    1.996 --    31 C    1.629    30 O    0.146
    33   6 C    3.896 --    35 O    1.642    34 C    1.080    17 O    1.064
    34   6 C    3.965 --    36 C    1.707    33 C    1.080    99 H    0.961
                            38 C    0.112
    35   8 O    1.982 --    33 C    1.642    17 O    0.137
    36   6 C    3.971 --    34 C    1.707    37 C    1.165   100 H    0.954
    37   6 C    3.985 --    38 C    1.765    36 C    1.165   101 H    0.958
    38   6 C    3.971 --    37 C    1.765    39 C    1.048   102 H    0.960
                            34 C    0.112
    39   6 C    3.984 --    38 C    1.048   104 H    0.968   103 H    0.961
                            40 C    0.931
    40   6 C    3.940 --    41 C    1.008    42 O    0.986   105 H    0.950
                            39 C    0.931
    41   6 C    3.974 --    43 C    1.824    40 C    1.008   106 H    0.963
                            45 C    0.126
    42   8 O    1.933 --    40 C    0.986   107 H    0.870
    43   6 C    3.991 --    41 C    1.824    44 C    1.126   108 H    0.961
    44   6 C    3.988 --    45 C    1.817    43 C    1.126   109 H    0.961
    45   6 C    3.983 --    44 C    1.817    46 C    1.035   110 H    0.962
                            41 C    0.126
    46   6 C    3.996 --    45 C    1.035    47 C    0.996   111 H    0.971
                           112 H    0.951
    47   6 C    3.990 --    48 C    1.007    46 C    0.996   113 H    0.972
                           114 H    0.967
    48   6 C    3.996 --    49 C    1.008    47 C    1.007   115 H    0.976
                           116 H    0.973
    49   6 C    3.996 --    50 C    1.020    48 C    1.008   118 H    0.975
                           117 H    0.969
    50   6 C    3.996 --    49 C    1.020   120 H    0.987   121 H    0.986
                           119 H    0.986
    51   8 O    2.091 --     1 C    1.068   122 H    0.838
    52   8 O    2.083 --     5 C    1.075   123 H    0.851
    53   6 C    3.920 --    27 O    0.982    54 C    0.956    58 O    0.953
                           124 H    0.944
    54   6 C    3.959 --    62 O    1.000    55 C    0.969    53 C    0.956
                           125 H    0.955
    55   6 C    3.966 --    61 O    1.004    54 C    0.969    56 C    0.968
                           126 H    0.960
    56   6 C    3.964 --    60 O    1.002    55 C    0.968    57 C    0.966
                           127 H    0.957
    57   6 C    3.938 --    59 C    0.982    56 C    0.966    58 O    0.953
                           128 H    0.950
    58   8 O    2.064 --    57 C    0.953    53 C    0.953
    59   6 C    3.964 --    63 O    1.018    57 C    0.982   129 H    0.964
                           130 H    0.961
    60   8 O    1.941 --    56 C    1.002   131 H    0.833
    61   8 O    1.933 --    55 C    1.004   132 H    0.847
    62   8 O    1.926 --    54 C    1.000   133 H    0.853
    63   8 O    1.922 --    59 C    1.018   134 H    0.831
    64   6 C    3.974 --    65 C    1.366    69 C    1.364    31 C    1.027
    65   6 C    3.985 --    66 C    1.473    64 C    1.366   135 H    0.959
    66   6 C    3.987 --    65 C    1.473    67 C    1.371   136 H    0.961
    67   6 C    3.984 --    68 C    1.372    66 C    1.371    70 C    1.056
    68   6 C    3.989 --    69 C    1.473    67 C    1.372   137 H    0.961
    69   6 C    3.986 --    68 C    1.473    64 C    1.364   138 H    0.966
    70   6 C    3.987 --    75 C    1.381    71 C    1.380    67 C    1.056
                            73 C    0.104
    71   6 C    3.988 --    72 C    1.454    70 C    1.380   139 H    0.964
                            74 C    0.107
    72   6 C    3.991 --    71 C    1.454    73 C    1.432   140 H    0.969
                            75 C    0.107
    73   6 C    3.982 --    72 C    1.432    74 C    1.431   141 H    0.970
                            70 C    0.104
    74   6 C    3.991 --    75 C    1.454    73 C    1.431   142 H    0.969
                            71 C    0.107
    75   6 C    3.988 --    74 C    1.454    70 C    1.381   143 H    0.966
                            72 C    0.107
    76   1 H    0.995 --     4 C    0.962
    77   1 H    0.992 --     6 C    0.961
    78   1 H    0.998 --     7 C    0.944
    79   1 H    0.993 --     8 C    0.951
    80   1 H    0.996 --     9 C    0.937
    81   1 H    0.995 --    10 C    0.956
    82   1 H    0.997 --    11 C    0.949
    83   1 H    0.998 --    13 C    0.956
    84   1 H    0.998 --    13 C    0.968
    85   1 H    0.880 --    14 O    0.866
    86   1 H    0.903 --    15 O    0.853
    87   1 H    0.995 --    18 C    0.967
    88   1 H    0.998 --    18 C    0.966
    89   1 H    0.877 --    19 O    0.857
    90   1 H    1.000 --    20 C    0.941
    91   1 H    0.997 --    22 C    0.948
    92   1 H    0.997 --    23 C    0.957
    93   1 H    0.996 --    24 C    0.949
    94   1 H    0.992 --    25 C    0.953
    95   1 H    0.869 --    26 O    0.851
    96   1 H    0.864 --    28 O    0.841
    97   1 H    0.989 --    29 C    0.962
    98   1 H    0.992 --    29 C    0.957
    99   1 H    0.993 --    34 C    0.961
   100   1 H    0.995 --    36 C    0.954
   101   1 H    0.995 --    37 C    0.958
   102   1 H    0.995 --    38 C    0.960
   103   1 H    0.990 --    39 C    0.961
   104   1 H    0.996 --    39 C    0.968
   105   1 H    0.997 --    40 C    0.950
   106   1 H    0.997 --    41 C    0.963
   107   1 H    0.886 --    42 O    0.870
   108   1 H    0.999 --    43 C    0.961
   109   1 H    0.998 --    44 C    0.961
   110   1 H    0.999 --    45 C    0.962
   111   1 H    0.998 --    46 C    0.971
   112   1 H    0.991 --    46 C    0.951
   113   1 H    0.997 --    47 C    0.972
   114   1 H    0.999 --    47 C    0.967
   115   1 H    0.999 --    48 C    0.976
   116   1 H    0.999 --    48 C    0.973
   117   1 H    0.999 --    49 C    0.969
   118   1 H    1.000 --    49 C    0.975
   119   1 H    0.999 --    50 C    0.986
   120   1 H    0.999 --    50 C    0.987
   121   1 H    0.998 --    50 C    0.986
   122   1 H    0.894 --    51 O    0.838
   123   1 H    0.869 --    52 O    0.851
   124   1 H    1.000 --    53 C    0.944
   125   1 H    0.996 --    54 C    0.955
   126   1 H    0.999 --    55 C    0.960
   127   1 H    0.996 --    56 C    0.957
   128   1 H    1.000 --    57 C    0.950
   129   1 H    0.996 --    59 C    0.964
   130   1 H    0.997 --    59 C    0.961
   131   1 H    0.862 --    60 O    0.833
   132   1 H    0.864 --    61 O    0.847
   133   1 H    0.871 --    62 O    0.853
   134   1 H    0.871 --    63 O    0.831
   135   1 H    0.996 --    65 C    0.959
   136   1 H    0.995 --    66 C    0.961
   137   1 H    0.995 --    68 C    0.961
   138   1 H    0.996 --    69 C    0.966
   139   1 H    0.998 --    71 C    0.964
   140   1 H    0.997 --    72 C    0.969
   141   1 H    0.997 --    73 C    0.970
   142   1 H    0.997 --    74 C    0.969
   143   1 H    0.998 --    75 C    0.966
 ---------------------------------------------------------------------------

Topologies differ in total number of bonds
Writing topology from bond orders to xtbtopo.mol

molecular dipole:
                 x           y           z       tot (Debye)
 q only:       -1.422      -2.578      -2.780
   full:       -0.452      -2.395      -3.463      10.763
molecular quadrupole (traceless):
                xx          xy          yy          xz          yz          zz
 q only:        3.388       0.280       2.355      -5.837     -11.609      -5.743
  q+dip:       -3.165       2.647      -5.201      -4.677     -17.779       8.366
   full:       -1.884       0.473      -6.228      -8.773     -14.291       8.111


           -------------------------------------------------
          | TOTAL ENERGY             -235.764194369014 Eh   |
          | GRADIENT NORM               0.123817468317 Eh/α |
          | HOMO-LUMO GAP               1.558092133541 eV   |
           -------------------------------------------------

------------------------------------------------------------------------
 * finished run on 2026/06/19 at 18:52:38.128     
------------------------------------------------------------------------
 total:
 * wall-time:     0 d,  0 h,  0 min,  0.302 sec
 *  cpu-time:     0 d,  0 h,  0 min,  4.558 sec
 * ratio c/w:    15.113 speedup
 SCF:
 * wall-time:     0 d,  0 h,  0 min,  0.247 sec
 *  cpu-time:     0 d,  0 h,  0 min,  3.908 sec
 * ratio c/w:    15.803 speedup

normal termination of xtb
