      -----------------------------------------------------------      
     |                   =====================                   |     
     |                           x T B                           |     
     |                   =====================                   |     
     |                         S. Grimme                         |     
     |          Mulliken Center for Theoretical Chemistry        |     
     |                    University of Bonn                     |     
      -----------------------------------------------------------      

   * xtb version 6.7.1 (edcfbbe) compiled by 'albert@albert-system' on 2024-07-22

   xtb is free software: you can redistribute it and/or modify it under
   the terms of the GNU Lesser General Public License as published by
   the Free Software Foundation, either version 3 of the License, or
   (at your option) any later version.
   
   xtb is distributed in the hope that it will be useful,
   but WITHOUT ANY WARRANTY; without even the implied warranty of
   MERCHANTABILITY or FITNESS FOR A PARTICULAR PURPOSE.  See the
   GNU Lesser General Public License for more details.
   
   Cite this work as:
   * C. Bannwarth, E. Caldeweyher, S. Ehlert, A. Hansen, P. Pracht,
     J. Seibert, S. Spicher, S. Grimme, WIREs Comput. Mol. Sci., 2020, 11,
     e01493. DOI: 10.1002/wcms.1493
   
   for GFN2-xTB:
   * C. Bannwarth, S. Ehlert and S. Grimme., J. Chem. Theory Comput., 2019,
     15, 1652-1671. DOI: 10.1021/acs.jctc.8b01176
   for GFN1-xTB:
   * S. Grimme, C. Bannwarth, P. Shushkov, J. Chem. Theory Comput., 2017,
     13, 1989-2009. DOI: 10.1021/acs.jctc.7b00118
   for GFN0-xTB:
   * P. Pracht, E. Caldeweyher, S. Ehlert, S. Grimme, ChemRxiv, 2019, preprint.
     DOI: 10.26434/chemrxiv.8326202.v1
   for GFN-FF:
   * S. Spicher and S. Grimme, Angew. Chem. Int. Ed., 2020, 59, 15665-15673.
     DOI: 10.1002/anie.202004239
   
   for ALPB and GBSA implicit solvation:
   * S. Ehlert, M. Stahn, S. Spicher, S. Grimme, J. Chem. Theory Comput.,
     2021, 17, 4250-4261. DOI: 10.1021/acs.jctc.1c00471
   
   for ddCOSMO and CPCM-X implicit solvation:
   * M. Stahn, S. Ehlert, S. Grimme, J. Phys. Chem. A,
     2023, XX, XXXX-XXXX. DOI: 10.1021/acs.jpca.3c04382
   
   for DFT-D4:
   * E. Caldeweyher, C. Bannwarth and S. Grimme, J. Chem. Phys., 2017,
     147, 034112. DOI: 10.1063/1.4993215
   * E. Caldeweyher, S. Ehlert, A. Hansen, H. Neugebauer, S. Spicher,
     C. Bannwarth and S. Grimme, J. Chem. Phys., 2019, 150, 154122.
     DOI: 10.1063/1.5090222
   * E. Caldeweyher, J.-M. Mewes, S. Ehlert and S. Grimme, Phys. Chem. Chem. Phys.
     2020, 22, 8499-8512. DOI: 10.1039/D0CP00502A
   
   for sTDA-xTB:
   * S. Grimme and C. Bannwarth, J. Chem. Phys., 2016, 145, 054103.
     DOI: 10.1063/1.4959605
   
   in the mass-spec context:
   * V. Asgeirsson, C. Bauer and S. Grimme, Chem. Sci., 2017, 8, 4879.
     DOI: 10.1039/c7sc00601b
   * J. Koopman and S. Grimme, ACS Omega 2019, 4, 12, 15120-15133.
     DOI: 10.1021/acsomega.9b02011
   
   for metadynamics refer to:
   * S. Grimme, J. Chem. Theory Comput., 2019, 155, 2847-2862
     DOI: 10.1021/acs.jctc.9b00143
   
   for SPH calculations refer to:
   * S. Spicher and S. Grimme, J. Chem. Theory Comput., 2021, 17, 1701-1714
     DOI: 10.1021/acs.jctc.0c01306
   
   for ONIOM refer to:
   * C. Plett, A. Katbashev, S. Ehlert, S. Grimme, M. Bursch,
     Phys. Chem. Chem. Phys., 2023, 25, 17860-17868. DOI: 10.1039/D3CP02178E
   
   for DIPRO refer to:
   * J. Kohn, N. Gildemeister, S. Grimme, D. Fazzi, A. Hansen,
     J. Chem. Phys., 2023, just accepted.
   
   for PTB refer to:
   * S. Grimme, M. Mueller, A. Hansen, J. Chem. Phys., 2023, 158, 124111.
     DOI: 10.1063/5.0137838
   
   with help from (in alphabetical order)
   P. Atkinson, C. Bannwarth, F. Bohle, G. Brandenburg, E. Caldeweyher
   M. Checinski, S. Dohm, S. Ehlert, S. Ehrlich, I. Gerasimov, C. Hölzer
   A. Katbashev, J. Kohn, J. Koopman, C. Lavigne, S. Lehtola, F. März, M. Müller,
   F. Musil, H. Neugebauer, J. Pisarek, C. Plett, P. Pracht, F. Pultar,
   J. Seibert, P. Shushkov, S. Spicher, M. Stahn, M. Steiner, T. Strunk,
   J. Stückrath, T. Rose, and J. Unsleber
   
 * started run on 2026/06/19 at 18:52:39.577     
   ID    Z sym.   atoms
    1    6 C      1-11, 13, 18, 20, 22-25, 29, 31, 33, 34, 36-41, 43-50,
                  53-57, 59, 64-75
    2    8 O      12, 14-17, 19, 21, 26-28, 30, 32, 35, 42, 51, 52, 58, 60-63
    3    1 H      76-143

           -------------------------------------------------
          |                Calculation Setup                |
           -------------------------------------------------

          program call               : xtb PAPU-0080/conf04.xyz --gfn 2 --alpb water --chrg 0 --uhf 0 --namespace PAPU-0080/conf04_water
          hostname                   : cpu10
          calculation namespace      : PAPU-0080/conf04_water
          coordinate file            : PAPU-0080/conf04.xyz
          omp threads                :                    16


           -------------------------------------------------
          |                 G F N 2 - x T B                 |
           -------------------------------------------------

        Reference                      10.1021/acs.jctc.8b01176
      * Hamiltonian:
        H0-scaling (s, p, d)           1.850000    2.230000    2.230000
        zeta-weighting                 0.500000
      * Dispersion:
        s8                             2.700000
        a1                             0.520000
        a2                             5.000000
        s9                             5.000000
      * Repulsion:
        kExp                           1.500000    1.000000
        rExp                           1.000000
      * Coulomb:
        alpha                          2.000000
        third order                    shell-resolved
        anisotropic                    true
        a3                             3.000000
        a5                             4.000000
        cn-shift                       1.200000
        cn-exp                         4.000000
        max-rad                        5.000000

      * Solvation model:               ALPB
        Solvent                        water
        Parameter file                 internal GFN2-xTB/ALPB
        Dielectric constant                8.0200E+01
        Reference state                gsolv [1 M gas/solution]
        Free energy shift                  1.0808E-03 Eh       6.7819E-01 kcal/mol
        Temperature                        2.9815E+02 K
        Density                            1.0000E+00 kg/L
        Solvent mass                       1.8000E+01 g/mol
        Interaction kernel             P16
        Born radius scaling (c1)           1.4744E+00
        Born radii integrator          GBOBC
        Born offset                        0.0000E+00 a0       0.0000E+00 AA
        H-bond correction              true
        Ion screening                  false
        Surface tension                    1.0000E-05 Eh       1.5569E+01 dyn/cm
        Grid points                               230 per atom

          ...................................................
          :                      SETUP                      :
          :.................................................:
          :  # basis functions                 368          :
          :  # atomic orbitals                 368          :
          :  # shells                          218          :
          :  # electrons                       410          :
          :  max. iterations                   250          :
          :  Hamiltonian                  GFN2-xTB          :
          :  restarted?                      false          :
          :  GBSA solvation                   true          :
          :  PC potential                    false          :
          :  electronic temp.          300.0000000     K    :
          :  accuracy                    1.0000000          :
          :  -> integral cutoff          0.2500000E+02      :
          :  -> integral neglect         0.1000000E-07      :
          :  -> SCF convergence          0.1000000E-05 Eh   :
          :  -> wf. convergence          0.1000000E-03 e    :
          :  Broyden damping             0.4000000          :
          :  net charge                          0          :
          :  unpaired electrons                  0          :
          ...................................................

 iter      E             dE          RMSdq      gap      omega  full diag
   1   -238.1112727 -0.238111E+03  0.453E+00    2.55       0.0  T
   2   -238.3336043 -0.222332E+00  0.249E+00    2.00       1.0  T
   3   -238.3134320  0.201723E-01  0.102E+00    2.04       1.0  T
   4   -238.3528251 -0.393932E-01  0.337E-01    1.81       1.0  T
   5   -238.3598846 -0.705951E-02  0.141E-01    1.82       1.0  T
   6   -238.3607637 -0.879033E-03  0.705E-02    1.81       1.0  T
   7   -238.3609213 -0.157640E-03  0.334E-02    1.81       1.0  T
   8   -238.3609657 -0.443340E-04  0.151E-02    1.81       1.0  T
   9   -238.3609733 -0.767347E-05  0.807E-03    1.81       1.0  T
  10   -238.3609758 -0.249428E-05  0.463E-03    1.81       1.8  T
  11   -238.3609768 -0.963351E-06  0.238E-03    1.81       3.5  T
  12   -238.3609770 -0.205662E-06  0.939E-04    1.81       8.9  T
  13   -238.3609770 -0.426806E-07  0.443E-04    1.81      18.9  T

   *** convergence criteria satisfied after 13 iterations ***

         #    Occupation            Energy/Eh            Energy/eV
      -------------------------------------------------------------
         1        2.0000           -0.7676105             -20.8877
       ...           ...                  ...                  ...
       199        2.0000           -0.4059845             -11.0474
       200        2.0000           -0.4048339             -11.0161
       201        2.0000           -0.4033139             -10.9747
       202        2.0000           -0.3967080             -10.7950
       203        2.0000           -0.3940787             -10.7234
       204        2.0000           -0.3832744             -10.4294
       205        2.0000           -0.3726177             -10.1394 (HOMO)
       206                         -0.3062409              -8.3332 (LUMO)
       207                         -0.2957203              -8.0470
       208                         -0.2427934              -6.6067
       209                         -0.2403217              -6.5395
       210                         -0.2390679              -6.5054
       ...                                ...                  ...
       368                          0.6921084              18.8332
      -------------------------------------------------------------
                  HL-Gap            0.0663768 Eh            1.8062 eV
             Fermi-level           -0.3394293 Eh           -9.2363 eV

 SCC (total)                   0 d,  0 h,  0 min,  0.247 sec
 SCC setup                      ...        0 min,  0.003 sec (  1.372%)
 Dispersion                     ...        0 min,  0.004 sec (  1.793%)
 classical contributions        ...        0 min,  0.000 sec (  0.070%)
 integral evaluation            ...        0 min,  0.012 sec (  4.801%)
 iterations                     ...        0 min,  0.188 sec ( 75.997%)
 molecular gradient             ...        0 min,  0.038 sec ( 15.206%)
 printout                       ...        0 min,  0.002 sec (  0.744%)

         :::::::::::::::::::::::::::::::::::::::::::::::::::::
         ::                     SUMMARY                     ::
         :::::::::::::::::::::::::::::::::::::::::::::::::::::
         :: total energy            -235.741541066095 Eh    ::
         :: total w/o Gsasa/hb      -235.698378035894 Eh    ::
         :: gradient norm              0.122853285040 Eh/a0 ::
         :: HOMO-LUMO gap              1.806203757510 eV    ::
         ::.................................................::
         :: SCC energy              -238.346358481849 Eh    ::
         :: -> isotropic ES            0.556619070466 Eh    ::
         :: -> anisotropic ES         -0.033345106479 Eh    ::
         :: -> anisotropic XC          0.022888497858 Eh    ::
         :: -> dispersion             -0.201181760687 Eh    ::
         :: -> Gsolv                  -0.098564566584 Eh    ::
         ::    -> Gelec               -0.055401536384 Eh    ::
         ::    -> Gsasa                0.008490004480 Eh    ::
         ::    -> Ghb                 -0.052733794379 Eh    ::
         ::    -> Gshift               0.001080759698 Eh    ::
         :: repulsion energy           2.604817415754 Eh    ::
         :: add. restraining           0.000000000000 Eh    ::
         :: total charge              -0.000000000000 e     ::
         :::::::::::::::::::::::::::::::::::::::::::::::::::::

           -------------------------------------------------
          |                Property Printout                |
           -------------------------------------------------

    * Orbital Energies and Occupations

         #    Occupation            Energy/Eh            Energy/eV
      -------------------------------------------------------------
         1        2.0000           -0.7676105             -20.8877
       ...           ...                  ...                  ...
       193        2.0000           -0.4181891             -11.3795
       194        2.0000           -0.4175139             -11.3611
       195        2.0000           -0.4169586             -11.3460
       196        2.0000           -0.4115729             -11.1995
       197        2.0000           -0.4083340             -11.1113
       198        2.0000           -0.4069296             -11.0731
       199        2.0000           -0.4059845             -11.0474
       200        2.0000           -0.4048339             -11.0161
       201        2.0000           -0.4033139             -10.9747
       202        2.0000           -0.3967080             -10.7950
       203        2.0000           -0.3940787             -10.7234
       204        2.0000           -0.3832744             -10.4294
       205        2.0000           -0.3726177             -10.1394 (HOMO)
       206                         -0.3062409              -8.3332 (LUMO)
       207                         -0.2957203              -8.0470
       208                         -0.2427934              -6.6067
       209                         -0.2403217              -6.5395
       210                         -0.2390679              -6.5054
       211                         -0.2313340              -6.2949
       212                         -0.2246375              -6.1127
       213                         -0.2240583              -6.0969
       214                         -0.2229133              -6.0658
       215                         -0.1980040              -5.3880
       216                         -0.1569734              -4.2715
       ...                                ...                  ...
       368                          0.6921084              18.8332
      -------------------------------------------------------------
                  HL-Gap            0.0663768 Eh            1.8062 eV
             Fermi-level           -0.3394293 Eh           -9.2363 eV

     #   Z          covCN         q      C6AA      α(0)
     1   6 C        2.838     0.143    24.888     8.176
     2   6 C        2.970    -0.042    29.043     8.840
     3   6 C        2.966     0.010    27.796     8.648
     4   6 C        2.930    -0.084    30.099     8.997
     5   6 C        2.836     0.148    24.776     8.157
     6   6 C        2.923    -0.080    29.988     8.980
     7   6 C        3.746     0.103    18.948     6.209
     8   6 C        3.722     0.093    19.146     6.249
     9   6 C        3.765     0.100    18.976     6.209
    10   6 C        3.743     0.098    19.038     6.225
    11   6 C        3.743     0.090    19.155     6.244
    12   8 O        1.695    -0.350    19.898     6.022
    13   6 C        3.682     0.074    19.542     6.330
    14   8 O        1.653    -0.512    23.158     6.496
    15   8 O        1.652    -0.466    22.171     6.356
    16   8 O        1.698    -0.343    19.767     6.003
    17   8 O        1.702    -0.293    18.866     5.864
    18   6 C        3.675     0.077    19.516     6.330
    19   8 O        1.654    -0.492    22.718     6.434
    20   6 C        3.642     0.248    17.081     5.942
    21   8 O        1.695    -0.362    20.117     6.056
    22   6 C        3.746     0.109    18.863     6.195
    23   6 C        3.721     0.093    19.152     6.250
    24   6 C        3.722     0.089    19.204     6.258
    25   6 C        3.754     0.089    19.164     6.242
    26   8 O        1.654    -0.487    22.623     6.421
    27   8 O        1.699    -0.324    19.417     5.949
    28   8 O        1.653    -0.496    22.808     6.447
    29   6 C        3.719     0.066    19.583     6.321
    30   8 O        1.703    -0.264    18.372     5.787
    31   6 C        2.742     0.358    20.922     7.489
    32   8 O        0.857    -0.478    23.305     6.472
    33   6 C        2.738     0.354    20.991     7.501
    34   6 C        2.897    -0.085    30.130     9.000
    35   8 O        0.858    -0.493    23.624     6.517
    36   6 C        2.903     0.001    28.003     8.677
    37   6 C        2.899    -0.039    28.971     8.825
    38   6 C        2.894    -0.014    28.366     8.732
    39   6 C        3.807    -0.073    21.894     6.661
    40   6 C        3.727     0.125    18.636     6.164
    41   6 C        2.894    -0.070    29.751     8.943
    42   8 O        1.652    -0.518    23.293     6.515
    43   6 C        2.899    -0.040    28.988     8.828
    44   6 C        2.897    -0.052    29.278     8.872
    45   6 C        2.897    -0.035    28.865     8.809
    46   6 C        3.805    -0.059    21.633     6.621
    47   6 C        3.802    -0.051    21.479     6.598
    48   6 C        3.800    -0.062    21.693     6.631
    49   6 C        3.799    -0.055    21.556     6.611
    50   6 C        3.750    -0.104    22.545     6.772
    51   8 O        1.655    -0.436    21.569     6.269
    52   8 O        1.657    -0.448    21.810     6.304
    53   6 C        3.651     0.234    17.233     5.963
    54   6 C        3.722     0.089    19.206     6.259
    55   6 C        3.723     0.099    19.046     6.232
    56   6 C        3.721     0.093    19.152     6.250
    57   6 C        3.741     0.105    18.930     6.208
    58   8 O        1.696    -0.365    20.165     6.063
    59   6 C        3.675     0.079    19.485     6.325
    60   8 O        1.653    -0.489    22.661     6.426
    61   8 O        1.654    -0.489    22.661     6.426
    62   8 O        1.654    -0.495    22.790     6.444
    63   8 O        1.654    -0.493    22.744     6.438
    64   6 C        2.975    -0.025    28.624     8.776
    65   6 C        2.924    -0.018    28.460     8.749
    66   6 C        2.926    -0.028    28.697     8.785
    67   6 C        2.976     0.027    27.391     8.585
    68   6 C        2.926    -0.031    28.776     8.797
    69   6 C        2.926    -0.017    28.426     8.743
    70   6 C        2.975     0.010    27.790     8.647
    71   6 C        2.928    -0.036    28.892     8.815
    72   6 C        2.920    -0.033    28.823     8.804
    73   6 C        2.925    -0.032    28.795     8.800
    74   6 C        2.920    -0.031    28.775     8.797
    75   6 C        2.928    -0.030    28.737     8.791
    76   1 H        0.926     0.066     2.135     2.285
    77   1 H        0.926     0.076     2.018     2.221
    78   1 H        0.924     0.035     2.516     2.481
    79   1 H        0.924     0.079     1.986     2.204
    80   1 H        0.924     0.048     2.349     2.397
    81   1 H        0.923     0.074     2.037     2.232
    82   1 H        0.924     0.049     2.335     2.390
    83   1 H        0.924     0.036     2.496     2.471
    84   1 H        0.924     0.038     2.479     2.462
    85   1 H        0.804     0.363     0.558     1.174
    86   1 H        0.802     0.311     0.688     1.303
    87   1 H        0.924     0.061     2.184     2.311
    88   1 H        0.924     0.046     2.367     2.406
    89   1 H        0.803     0.363     0.558     1.174
    90   1 H        0.923     0.014     2.825     2.628
    91   1 H        0.923     0.047     2.362     2.404
    92   1 H        0.923     0.056     2.242     2.341
    93   1 H        0.923     0.056     2.246     2.344
    94   1 H        0.924     0.084     1.937     2.176
    95   1 H        0.804     0.372     0.540     1.155
    96   1 H        0.803     0.380     0.524     1.137
    97   1 H        0.924     0.103     1.758     2.073
    98   1 H        0.924     0.089     1.885     2.147
    99   1 H        0.926     0.081     1.971     2.195
   100   1 H        0.926     0.073     2.057     2.243
   101   1 H        0.926     0.069     2.100     2.266
   102   1 H        0.926     0.068     2.109     2.271
   103   1 H        0.924     0.075     2.035     2.231
   104   1 H        0.924     0.070     2.088     2.260
   105   1 H        0.923     0.025     2.654     2.548
   106   1 H        0.926     0.054     2.274     2.358
   107   1 H        0.804     0.359     0.568     1.184
   108   1 H        0.926     0.032     2.560     2.502
   109   1 H        0.926     0.046     2.373     2.409
   110   1 H        0.926     0.020     2.732     2.585
   111   1 H        0.924     0.035     2.516     2.481
   112   1 H        0.924     0.037     2.483     2.464
   113   1 H        0.924     0.032     2.556     2.500
   114   1 H        0.924     0.031     2.577     2.510
   115   1 H        0.924     0.032     2.562     2.503
   116   1 H        0.924     0.036     2.501     2.473
   117   1 H        0.923     0.027     2.635     2.539
   118   1 H        0.924     0.033     2.547     2.496
   119   1 H        0.924     0.028     2.620     2.531
   120   1 H        0.924     0.034     2.529     2.487
   121   1 H        0.924     0.035     2.517     2.481
   122   1 H        0.802     0.333     0.629     1.246
   123   1 H        0.804     0.378     0.527     1.140
   124   1 H        0.923     0.011     2.877     2.653
   125   1 H        0.923     0.061     2.184     2.311
   126   1 H        0.923     0.033     2.550     2.497
   127   1 H        0.923     0.056     2.245     2.343
   128   1 H        0.923     0.013     2.841     2.636
   129   1 H        0.924     0.053     2.283     2.363
   130   1 H        0.924     0.056     2.249     2.345
   131   1 H        0.803     0.381     0.521     1.133
   132   1 H        0.804     0.378     0.527     1.140
   133   1 H        0.804     0.370     0.544     1.159
   134   1 H        0.803     0.364     0.556     1.171
   135   1 H        0.926     0.059     2.213     2.326
   136   1 H        0.926     0.064     2.157     2.297
   137   1 H        0.926     0.060     2.202     2.320
   138   1 H        0.926     0.051     2.304     2.373
   139   1 H        0.926     0.043     2.404     2.425
   140   1 H        0.926     0.045     2.385     2.415
   141   1 H        0.926     0.045     2.389     2.417
   142   1 H        0.926     0.044     2.398     2.421
   143   1 H        0.926     0.040     2.447     2.446

 Mol. C6AA /au·bohr⁶  :     206070.906719
 Mol. C8AA /au·bohr⁸  :    4735386.911191
 Mol. α(0) /au        :        686.584843


Wiberg/Mayer (AO) data.
largest (>0.10) Wiberg bond orders for each atom

 ---------------------------------------------------------------------------
     #   Z sym  total        # sym  WBO       # sym  WBO       # sym  WBO
 ---------------------------------------------------------------------------
     1   6 C    3.939 --     6 C    1.385     2 C    1.337    51 O    1.067
     2   6 C    3.973 --     3 C    1.387     1 C    1.337     7 C    0.992
     3   6 C    3.988 --     4 C    1.431     2 C    1.387    13 C    1.001
     4   6 C    3.982 --     3 C    1.431     5 C    1.358    76 H    0.962
     5   6 C    3.945 --     6 C    1.382     4 C    1.358    52 O    1.077
     6   6 C    3.980 --     1 C    1.385     5 C    1.382    77 H    0.963
     7   6 C    3.939 --     2 C    0.992     8 C    0.949    12 O    0.947
                            78 H    0.945
     8   6 C    3.949 --    15 O    1.002     9 C    0.956     7 C    0.949
                            79 H    0.947
     9   6 C    3.926 --    10 C    0.967     8 C    0.956    17 O    0.942
                            80 H    0.941
    10   6 C    3.932 --     9 C    0.967    11 C    0.960    16 O    0.957
                            81 H    0.955
    11   6 C    3.945 --    18 C    0.982    12 O    0.967    10 C    0.960
                            82 H    0.948
    12   8 O    2.064 --    11 C    0.967     7 C    0.947
    13   6 C    3.955 --     3 C    1.001    14 O    0.980    84 H    0.968
                            83 H    0.959
    14   8 O    1.910 --    13 C    0.980    85 H    0.853
    15   8 O    1.959 --     8 C    1.002    86 H    0.849
    16   8 O    2.075 --    20 C    0.975    10 C    0.957
    17   8 O    2.266 --    33 C    1.087     9 C    0.942    35 O    0.146
    18   6 C    3.959 --    19 O    1.011    11 C    0.982    87 H    0.968
                            88 H    0.966
    19   8 O    1.919 --    18 C    1.011    89 H    0.848
    20   6 C    3.921 --    16 O    0.975    21 O    0.958    25 C    0.955
                            90 H    0.940
    21   8 O    2.061 --    20 C    0.958    22 C    0.946
    22   6 C    3.933 --    29 C    0.978    23 C    0.969    91 H    0.952
                            21 O    0.946
    23   6 C    3.965 --    28 O    1.007    22 C    0.969    24 C    0.967
                            92 H    0.956
    24   6 C    3.961 --    26 O    1.001    23 C    0.967    25 C    0.963
                            93 H    0.951
    25   6 C    3.938 --    27 O    0.966    24 C    0.963    20 C    0.955
                            94 H    0.953
    26   8 O    1.927 --    24 C    1.001    95 H    0.844
    27   8 O    2.087 --    53 C    0.981    25 C    0.966
    28   8 O    1.913 --    23 C    1.007    96 H    0.833
    29   6 C    3.917 --    22 C    0.978    97 H    0.960    98 H    0.957
                            30 O    0.955
    30   8 O    2.302 --    31 C    1.120    29 C    0.955    32 O    0.148
    31   6 C    3.888 --    32 O    1.636    30 O    1.120    64 C    1.023
    32   8 O    2.001 --    31 C    1.636    30 O    0.148
    33   6 C    3.897 --    35 O    1.638    17 O    1.087    34 C    1.073
    34   6 C    3.968 --    36 C    1.715    33 C    1.073    99 H    0.960
                            38 C    0.115
    35   8 O    1.975 --    33 C    1.638    17 O    0.146
    36   6 C    3.972 --    34 C    1.715    37 C    1.161   100 H    0.954
    37   6 C    3.986 --    38 C    1.778    36 C    1.161   101 H    0.958
    38   6 C    3.971 --    37 C    1.778    39 C    1.042   102 H    0.962
                            34 C    0.115
    39   6 C    3.983 --    38 C    1.042   104 H    0.966   103 H    0.963
                            40 C    0.941
    40   6 C    3.944 --    41 C    1.008    42 O    0.978   105 H    0.958
                            39 C    0.941
    41   6 C    3.975 --    43 C    1.839    40 C    1.008   106 H    0.963
                            45 C    0.115
    42   8 O    1.901 --    40 C    0.978   107 H    0.856
    43   6 C    3.990 --    41 C    1.839    44 C    1.112   108 H    0.957
    44   6 C    3.988 --    45 C    1.836    43 C    1.112   109 H    0.961
    45   6 C    3.983 --    44 C    1.836    46 C    1.033   110 H    0.963
                            41 C    0.115
    46   6 C    3.996 --    45 C    1.033    47 C    0.984   111 H    0.974
                           112 H    0.957
    47   6 C    3.989 --    48 C    1.007    46 C    0.984   114 H    0.977
                           113 H    0.972
    48   6 C    3.994 --    47 C    1.007    49 C    1.006   115 H    0.976
                           116 H    0.970
    49   6 C    3.996 --    50 C    1.021    48 C    1.006   118 H    0.977
                           117 H    0.975
    50   6 C    3.997 --    49 C    1.021   121 H    0.987   120 H    0.985
                           119 H    0.983
    51   8 O    2.082 --     1 C    1.067   122 H    0.839
    52   8 O    2.074 --     5 C    1.077   123 H    0.839
    53   6 C    3.918 --    27 O    0.981    54 C    0.956    58 O    0.952
                           124 H    0.944
    54   6 C    3.958 --    62 O    1.000    55 C    0.969    53 C    0.956
                           125 H    0.955
    55   6 C    3.965 --    61 O    1.003    54 C    0.969    56 C    0.968
                           126 H    0.960
    56   6 C    3.964 --    60 O    1.003    55 C    0.968    57 C    0.967
                           127 H    0.957
    57   6 C    3.936 --    59 C    0.983    56 C    0.967   128 H    0.950
                            58 O    0.950
    58   8 O    2.059 --    53 C    0.952    57 C    0.950
    59   6 C    3.964 --    63 O    1.016    57 C    0.983   129 H    0.965
                           130 H    0.959
    60   8 O    1.935 --    56 C    1.003   131 H    0.826
    61   8 O    1.925 --    55 C    1.003   132 H    0.840
    62   8 O    1.918 --    54 C    1.000   133 H    0.846
    63   8 O    1.915 --    59 C    1.016   134 H    0.827
    64   6 C    3.975 --    65 C    1.368    69 C    1.366    31 C    1.023
    65   6 C    3.986 --    66 C    1.471    64 C    1.368   135 H    0.965
    66   6 C    3.988 --    65 C    1.471    67 C    1.371   136 H    0.963
    67   6 C    3.984 --    68 C    1.374    66 C    1.371    70 C    1.053
    68   6 C    3.989 --    69 C    1.469    67 C    1.374   137 H    0.962
    69   6 C    3.987 --    68 C    1.469    64 C    1.366   138 H    0.965
    70   6 C    3.987 --    71 C    1.383    75 C    1.382    67 C    1.053
                            73 C    0.104
    71   6 C    3.988 --    72 C    1.454    70 C    1.383   139 H    0.967
                            74 C    0.107
    72   6 C    3.991 --    71 C    1.454    73 C    1.433   140 H    0.969
                            75 C    0.108
    73   6 C    3.983 --    74 C    1.434    72 C    1.433   141 H    0.970
                            70 C    0.104
    74   6 C    3.991 --    75 C    1.454    73 C    1.434   142 H    0.969
                            71 C    0.107
    75   6 C    3.988 --    74 C    1.454    70 C    1.382   143 H    0.966
                            72 C    0.108
    76   1 H    0.995 --     4 C    0.962
    77   1 H    0.993 --     6 C    0.963
    78   1 H    0.998 --     7 C    0.945
    79   1 H    0.994 --     8 C    0.947
    80   1 H    0.998 --     9 C    0.941
    81   1 H    0.994 --    10 C    0.955
    82   1 H    0.998 --    11 C    0.948
    83   1 H    0.998 --    13 C    0.959
    84   1 H    0.998 --    13 C    0.968
    85   1 H    0.867 --    14 O    0.853
    86   1 H    0.903 --    15 O    0.849
    87   1 H    0.996 --    18 C    0.968
    88   1 H    0.998 --    18 C    0.966
    89   1 H    0.868 --    19 O    0.848
    90   1 H    1.000 --    20 C    0.940
    91   1 H    0.998 --    22 C    0.952
    92   1 H    0.997 --    23 C    0.956
    93   1 H    0.997 --    24 C    0.951
    94   1 H    0.992 --    25 C    0.953
    95   1 H    0.862 --    26 O    0.844
    96   1 H    0.856 --    28 O    0.833
    97   1 H    0.988 --    29 C    0.960
    98   1 H    0.992 --    29 C    0.957
    99   1 H    0.993 --    34 C    0.960
   100   1 H    0.995 --    36 C    0.954
   101   1 H    0.995 --    37 C    0.958
   102   1 H    0.995 --    38 C    0.962
   103   1 H    0.991 --    39 C    0.963
   104   1 H    0.994 --    39 C    0.966
   105   1 H    0.999 --    40 C    0.958
   106   1 H    0.997 --    41 C    0.963
   107   1 H    0.871 --    42 O    0.856
   108   1 H    0.999 --    43 C    0.957
   109   1 H    0.998 --    44 C    0.961
   110   1 H    1.000 --    45 C    0.963
   111   1 H    0.999 --    46 C    0.974
   112   1 H    0.995 --    46 C    0.957
   113   1 H    0.999 --    47 C    0.972
   114   1 H    0.999 --    47 C    0.977
   115   1 H    0.999 --    48 C    0.976
   116   1 H    0.999 --    48 C    0.970
   117   1 H    0.999 --    49 C    0.975
   118   1 H    0.999 --    49 C    0.977
   119   1 H    0.999 --    50 C    0.983
   120   1 H    0.999 --    50 C    0.985
   121   1 H    0.999 --    50 C    0.987
   122   1 H    0.888 --    51 O    0.839
   123   1 H    0.857 --    52 O    0.839
   124   1 H    1.000 --    53 C    0.944
   125   1 H    0.996 --    54 C    0.955
   126   1 H    0.999 --    55 C    0.960
   127   1 H    0.996 --    56 C    0.957
   128   1 H    1.000 --    57 C    0.950
   129   1 H    0.997 --    59 C    0.965
   130   1 H    0.996 --    59 C    0.959
   131   1 H    0.855 --    60 O    0.826
   132   1 H    0.857 --    61 O    0.840
   133   1 H    0.863 --    62 O    0.846
   134   1 H    0.867 --    63 O    0.827
   135   1 H    0.996 --    65 C    0.965
   136   1 H    0.995 --    66 C    0.963
   137   1 H    0.996 --    68 C    0.962
   138   1 H    0.997 --    69 C    0.965
   139   1 H    0.998 --    71 C    0.967
   140   1 H    0.997 --    72 C    0.969
   141   1 H    0.997 --    73 C    0.970
   142   1 H    0.997 --    74 C    0.969
   143   1 H    0.998 --    75 C    0.966
 ---------------------------------------------------------------------------

Topologies differ in total number of bonds
Writing topology from bond orders to xtbtopo.mol

molecular dipole:
                 x           y           z       tot (Debye)
 q only:       -1.526      -2.637      -2.609
   full:       -0.971      -2.474      -3.087      10.354
molecular quadrupole (traceless):
                xx          xy          yy          xz          yz          zz
 q only:       23.498       0.442      -9.145      -7.032     -21.001     -14.353
  q+dip:       23.098       3.465     -22.756      -7.665     -30.455      -0.342
   full:       25.916       2.820     -25.034     -11.205     -28.705      -0.882


           -------------------------------------------------
          | TOTAL ENERGY             -235.741541066095 Eh   |
          | GRADIENT NORM               0.122853285040 Eh/α |
          | HOMO-LUMO GAP               1.806203757510 eV   |
           -------------------------------------------------

------------------------------------------------------------------------
 * finished run on 2026/06/19 at 18:52:39.877     
------------------------------------------------------------------------
 total:
 * wall-time:     0 d,  0 h,  0 min,  0.299 sec
 *  cpu-time:     0 d,  0 h,  0 min,  4.550 sec
 * ratio c/w:    15.200 speedup
 SCF:
 * wall-time:     0 d,  0 h,  0 min,  0.248 sec
 *  cpu-time:     0 d,  0 h,  0 min,  3.900 sec
 * ratio c/w:    15.739 speedup

normal termination of xtb
