      -----------------------------------------------------------      
     |                   =====================                   |     
     |                           x T B                           |     
     |                   =====================                   |     
     |                         S. Grimme                         |     
     |          Mulliken Center for Theoretical Chemistry        |     
     |                    University of Bonn                     |     
      -----------------------------------------------------------      

   * xtb version 6.7.1 (edcfbbe) compiled by 'albert@albert-system' on 2024-07-22

   xtb is free software: you can redistribute it and/or modify it under
   the terms of the GNU Lesser General Public License as published by
   the Free Software Foundation, either version 3 of the License, or
   (at your option) any later version.
   
   xtb is distributed in the hope that it will be useful,
   but WITHOUT ANY WARRANTY; without even the implied warranty of
   MERCHANTABILITY or FITNESS FOR A PARTICULAR PURPOSE.  See the
   GNU Lesser General Public License for more details.
   
   Cite this work as:
   * C. Bannwarth, E. Caldeweyher, S. Ehlert, A. Hansen, P. Pracht,
     J. Seibert, S. Spicher, S. Grimme, WIREs Comput. Mol. Sci., 2020, 11,
     e01493. DOI: 10.1002/wcms.1493
   
   for GFN2-xTB:
   * C. Bannwarth, S. Ehlert and S. Grimme., J. Chem. Theory Comput., 2019,
     15, 1652-1671. DOI: 10.1021/acs.jctc.8b01176
   for GFN1-xTB:
   * S. Grimme, C. Bannwarth, P. Shushkov, J. Chem. Theory Comput., 2017,
     13, 1989-2009. DOI: 10.1021/acs.jctc.7b00118
   for GFN0-xTB:
   * P. Pracht, E. Caldeweyher, S. Ehlert, S. Grimme, ChemRxiv, 2019, preprint.
     DOI: 10.26434/chemrxiv.8326202.v1
   for GFN-FF:
   * S. Spicher and S. Grimme, Angew. Chem. Int. Ed., 2020, 59, 15665-15673.
     DOI: 10.1002/anie.202004239
   
   for ALPB and GBSA implicit solvation:
   * S. Ehlert, M. Stahn, S. Spicher, S. Grimme, J. Chem. Theory Comput.,
     2021, 17, 4250-4261. DOI: 10.1021/acs.jctc.1c00471
   
   for ddCOSMO and CPCM-X implicit solvation:
   * M. Stahn, S. Ehlert, S. Grimme, J. Phys. Chem. A,
     2023, XX, XXXX-XXXX. DOI: 10.1021/acs.jpca.3c04382
   
   for DFT-D4:
   * E. Caldeweyher, C. Bannwarth and S. Grimme, J. Chem. Phys., 2017,
     147, 034112. DOI: 10.1063/1.4993215
   * E. Caldeweyher, S. Ehlert, A. Hansen, H. Neugebauer, S. Spicher,
     C. Bannwarth and S. Grimme, J. Chem. Phys., 2019, 150, 154122.
     DOI: 10.1063/1.5090222
   * E. Caldeweyher, J.-M. Mewes, S. Ehlert and S. Grimme, Phys. Chem. Chem. Phys.
     2020, 22, 8499-8512. DOI: 10.1039/D0CP00502A
   
   for sTDA-xTB:
   * S. Grimme and C. Bannwarth, J. Chem. Phys., 2016, 145, 054103.
     DOI: 10.1063/1.4959605
   
   in the mass-spec context:
   * V. Asgeirsson, C. Bauer and S. Grimme, Chem. Sci., 2017, 8, 4879.
     DOI: 10.1039/c7sc00601b
   * J. Koopman and S. Grimme, ACS Omega 2019, 4, 12, 15120-15133.
     DOI: 10.1021/acsomega.9b02011
   
   for metadynamics refer to:
   * S. Grimme, J. Chem. Theory Comput., 2019, 155, 2847-2862
     DOI: 10.1021/acs.jctc.9b00143
   
   for SPH calculations refer to:
   * S. Spicher and S. Grimme, J. Chem. Theory Comput., 2021, 17, 1701-1714
     DOI: 10.1021/acs.jctc.0c01306
   
   for ONIOM refer to:
   * C. Plett, A. Katbashev, S. Ehlert, S. Grimme, M. Bursch,
     Phys. Chem. Chem. Phys., 2023, 25, 17860-17868. DOI: 10.1039/D3CP02178E
   
   for DIPRO refer to:
   * J. Kohn, N. Gildemeister, S. Grimme, D. Fazzi, A. Hansen,
     J. Chem. Phys., 2023, just accepted.
   
   for PTB refer to:
   * S. Grimme, M. Mueller, A. Hansen, J. Chem. Phys., 2023, 158, 124111.
     DOI: 10.1063/5.0137838
   
   with help from (in alphabetical order)
   P. Atkinson, C. Bannwarth, F. Bohle, G. Brandenburg, E. Caldeweyher
   M. Checinski, S. Dohm, S. Ehlert, S. Ehrlich, I. Gerasimov, C. Hölzer
   A. Katbashev, J. Kohn, J. Koopman, C. Lavigne, S. Lehtola, F. März, M. Müller,
   F. Musil, H. Neugebauer, J. Pisarek, C. Plett, P. Pracht, F. Pultar,
   J. Seibert, P. Shushkov, S. Spicher, M. Stahn, M. Steiner, T. Strunk,
   J. Stückrath, T. Rose, and J. Unsleber
   
 * started run on 2026/06/19 at 18:52:39.889     
   ID    Z sym.   atoms
    1    6 C      1-11, 13, 18, 20, 22-25, 29, 31, 33, 34, 36-41, 43-50,
                  53-57, 59, 64-75
    2    8 O      12, 14-17, 19, 21, 26-28, 30, 32, 35, 42, 51, 52, 58, 60-63
    3    1 H      76-143

           -------------------------------------------------
          |                Calculation Setup                |
           -------------------------------------------------

          program call               : xtb PAPU-0080/conf04.xyz --gfn 2 --alpb octanol --chrg 0 --uhf 0 --namespace PAPU-0080/conf04_octanol
          hostname                   : cpu10
          calculation namespace      : PAPU-0080/conf04_octanol
          coordinate file            : PAPU-0080/conf04.xyz
          omp threads                :                    16


           -------------------------------------------------
          |                 G F N 2 - x T B                 |
           -------------------------------------------------

        Reference                      10.1021/acs.jctc.8b01176
      * Hamiltonian:
        H0-scaling (s, p, d)           1.850000    2.230000    2.230000
        zeta-weighting                 0.500000
      * Dispersion:
        s8                             2.700000
        a1                             0.520000
        a2                             5.000000
        s9                             5.000000
      * Repulsion:
        kExp                           1.500000    1.000000
        rExp                           1.000000
      * Coulomb:
        alpha                          2.000000
        third order                    shell-resolved
        anisotropic                    true
        a3                             3.000000
        a5                             4.000000
        cn-shift                       1.200000
        cn-exp                         4.000000
        max-rad                        5.000000

      * Solvation model:               ALPB
        Solvent                        octanol
        Parameter file                 internal GFN2-xTB/ALPB
        Dielectric constant                9.8629E+00
        Reference state                gsolv [1 M gas/solution]
        Free energy shift                  2.3397E-03 Eh       1.4682E+00 kcal/mol
        Temperature                        2.9815E+02 K
        Density                            8.3000E-01 kg/L
        Solvent mass                       1.3023E+02 g/mol
        Interaction kernel             P16
        Born radius scaling (c1)           1.5898E+00
        Born radii integrator          GBOBC
        Born offset                        0.0000E+00 a0       0.0000E+00 AA
        H-bond correction              true
        Ion screening                  false
        Surface tension                    1.0000E-05 Eh       1.5569E+01 dyn/cm
        Grid points                               230 per atom

          ...................................................
          :                      SETUP                      :
          :.................................................:
          :  # basis functions                 368          :
          :  # atomic orbitals                 368          :
          :  # shells                          218          :
          :  # electrons                       410          :
          :  max. iterations                   250          :
          :  Hamiltonian                  GFN2-xTB          :
          :  restarted?                      false          :
          :  GBSA solvation                   true          :
          :  PC potential                    false          :
          :  electronic temp.          300.0000000     K    :
          :  accuracy                    1.0000000          :
          :  -> integral cutoff          0.2500000E+02      :
          :  -> integral neglect         0.1000000E-07      :
          :  -> SCF convergence          0.1000000E-05 Eh   :
          :  -> wf. convergence          0.1000000E-03 e    :
          :  Broyden damping             0.4000000          :
          :  net charge                          0          :
          :  unpaired electrons                  0          :
          ...................................................

 iter      E             dE          RMSdq      gap      omega  full diag
   1   -238.1339972 -0.238134E+03  0.450E+00    2.49       0.0  T
   2   -238.3531557 -0.219159E+00  0.249E+00    1.86       1.0  T
   3   -238.3325839  0.205718E-01  0.103E+00    1.95       1.0  T
   4   -238.3726263 -0.400424E-01  0.320E-01    1.74       1.0  T
   5   -238.3794120 -0.678563E-02  0.134E-01    1.74       1.0  T
   6   -238.3804116 -0.999647E-03  0.630E-02    1.75       1.0  T
   7   -238.3805485 -0.136931E-03  0.284E-02    1.76       1.0  T
   8   -238.3805795 -0.309200E-04  0.121E-02    1.76       1.0  T
   9   -238.3805842 -0.474903E-05  0.639E-03    1.76       1.3  T
  10   -238.3805866 -0.237227E-05  0.273E-03    1.76       3.1  T
  11   -238.3805868 -0.218998E-06  0.139E-03    1.76       6.0  T
  12   -238.3805868 -0.425436E-07  0.561E-04    1.76      14.9  T
  13   -238.3805869 -0.131386E-07  0.257E-04    1.76      32.6  T

   *** convergence criteria satisfied after 13 iterations ***

         #    Occupation            Energy/Eh            Energy/eV
      -------------------------------------------------------------
         1        2.0000           -0.7719132             -21.0048
       ...           ...                  ...                  ...
       199        2.0000           -0.4101535             -11.1608
       200        2.0000           -0.4062033             -11.0534
       201        2.0000           -0.4055351             -11.0352
       202        2.0000           -0.4002339             -10.8909
       203        2.0000           -0.3980621             -10.8318
       204        2.0000           -0.3877316             -10.5507
       205        2.0000           -0.3747365             -10.1971 (HOMO)
       206                         -0.3102160              -8.4414 (LUMO)
       207                         -0.2999892              -8.1631
       208                         -0.2465966              -6.7102
       209                         -0.2435865              -6.6283
       210                         -0.2425361              -6.5997
       ...                                ...                  ...
       368                          0.6885681              18.7369
      -------------------------------------------------------------
                  HL-Gap            0.0645206 Eh            1.7557 eV
             Fermi-level           -0.3424762 Eh           -9.3193 eV

 SCC (total)                   0 d,  0 h,  0 min,  0.248 sec
 SCC setup                      ...        0 min,  0.003 sec (  1.361%)
 Dispersion                     ...        0 min,  0.004 sec (  1.640%)
 classical contributions        ...        0 min,  0.000 sec (  0.064%)
 integral evaluation            ...        0 min,  0.011 sec (  4.587%)
 iterations                     ...        0 min,  0.189 sec ( 76.225%)
 molecular gradient             ...        0 min,  0.038 sec ( 15.326%)
 printout                       ...        0 min,  0.002 sec (  0.777%)

         :::::::::::::::::::::::::::::::::::::::::::::::::::::
         ::                     SUMMARY                     ::
         :::::::::::::::::::::::::::::::::::::::::::::::::::::
         :: total energy            -235.761150891759 Eh    ::
         :: total w/o Gsasa/hb      -235.682278093523 Eh    ::
         :: gradient norm              0.122216534466 Eh/a0 ::
         :: HOMO-LUMO gap              1.755694528583 eV    ::
         ::.................................................::
         :: SCC energy              -238.365968307513 Eh    ::
         :: -> isotropic ES            0.536180687472 Eh    ::
         :: -> anisotropic ES         -0.030268553589 Eh    ::
         :: -> anisotropic XC          0.022500080012 Eh    ::
         :: -> dispersion             -0.200850573840 Eh    ::
         :: -> Gsolv                  -0.111841773529 Eh    ::
         ::    -> Gelec               -0.032968975293 Eh    ::
         ::    -> Gsasa               -0.029721720900 Eh    ::
         ::    -> Ghb                 -0.051490746712 Eh    ::
         ::    -> Gshift               0.002339669376 Eh    ::
         :: repulsion energy           2.604817415754 Eh    ::
         :: add. restraining           0.000000000000 Eh    ::
         :: total charge               0.000000000000 e     ::
         :::::::::::::::::::::::::::::::::::::::::::::::::::::

           -------------------------------------------------
          |                Property Printout                |
           -------------------------------------------------

    * Orbital Energies and Occupations

         #    Occupation            Energy/Eh            Energy/eV
      -------------------------------------------------------------
         1        2.0000           -0.7719132             -21.0048
       ...           ...                  ...                  ...
       193        2.0000           -0.4219885             -11.4829
       194        2.0000           -0.4211012             -11.4587
       195        2.0000           -0.4184475             -11.3865
       196        2.0000           -0.4126701             -11.2293
       197        2.0000           -0.4113722             -11.1940
       198        2.0000           -0.4108646             -11.1802
       199        2.0000           -0.4101535             -11.1608
       200        2.0000           -0.4062033             -11.0534
       201        2.0000           -0.4055351             -11.0352
       202        2.0000           -0.4002339             -10.8909
       203        2.0000           -0.3980621             -10.8318
       204        2.0000           -0.3877316             -10.5507
       205        2.0000           -0.3747365             -10.1971 (HOMO)
       206                         -0.3102160              -8.4414 (LUMO)
       207                         -0.2999892              -8.1631
       208                         -0.2465966              -6.7102
       209                         -0.2435865              -6.6283
       210                         -0.2425361              -6.5997
       211                         -0.2358354              -6.4174
       212                         -0.2286997              -6.2232
       213                         -0.2272799              -6.1846
       214                         -0.2271544              -6.1812
       215                         -0.2019246              -5.4946
       216                         -0.1616722              -4.3993
       ...                                ...                  ...
       368                          0.6885681              18.7369
      -------------------------------------------------------------
                  HL-Gap            0.0645206 Eh            1.7557 eV
             Fermi-level           -0.3424762 Eh           -9.3193 eV

     #   Z          covCN         q      C6AA      α(0)
     1   6 C        2.838     0.144    24.855     8.170
     2   6 C        2.970    -0.045    29.113     8.851
     3   6 C        2.966     0.012    27.756     8.642
     4   6 C        2.930    -0.087    30.191     9.011
     5   6 C        2.836     0.151    24.715     8.147
     6   6 C        2.923    -0.081    30.031     8.987
     7   6 C        3.746     0.101    18.983     6.215
     8   6 C        3.722     0.090    19.193     6.257
     9   6 C        3.765     0.097    19.020     6.216
    10   6 C        3.743     0.095    19.079     6.231
    11   6 C        3.743     0.086    19.225     6.255
    12   8 O        1.695    -0.351    19.907     6.024
    13   6 C        3.682     0.073    19.556     6.333
    14   8 O        1.653    -0.496    22.807     6.447
    15   8 O        1.652    -0.466    22.172     6.356
    16   8 O        1.698    -0.340    19.713     5.995
    17   8 O        1.702    -0.295    18.898     5.869
    18   6 C        3.675     0.073    19.580     6.340
    19   8 O        1.654    -0.475    22.359     6.383
    20   6 C        3.642     0.246    17.107     5.947
    21   8 O        1.695    -0.357    20.024     6.042
    22   6 C        3.746     0.105    18.916     6.204
    23   6 C        3.721     0.089    19.219     6.261
    24   6 C        3.722     0.083    19.308     6.275
    25   6 C        3.754     0.085    19.216     6.251
    26   8 O        1.654    -0.479    22.443     6.395
    27   8 O        1.699    -0.323    19.405     5.947
    28   8 O        1.653    -0.483    22.521     6.406
    29   6 C        3.719     0.061    19.675     6.336
    30   8 O        1.703    -0.259    18.288     5.774
    31   6 C        2.742     0.360    20.886     7.483
    32   8 O        0.857    -0.477    23.292     6.471
    33   6 C        2.738     0.357    20.938     7.492
    34   6 C        2.897    -0.092    30.319     9.028
    35   8 O        0.858    -0.480    23.351     6.479
    36   6 C        2.903    -0.004    28.115     8.694
    37   6 C        2.899    -0.043    29.069     8.840
    38   6 C        2.894    -0.018    28.454     8.746
    39   6 C        3.807    -0.075    21.937     6.667
    40   6 C        3.727     0.125    18.640     6.164
    41   6 C        2.894    -0.074    29.853     8.958
    42   8 O        1.652    -0.501    22.921     6.463
    43   6 C        2.899    -0.040    28.987     8.828
    44   6 C        2.897    -0.053    29.318     8.878
    45   6 C        2.897    -0.034    28.855     8.807
    46   6 C        3.805    -0.062    21.682     6.629
    47   6 C        3.802    -0.051    21.492     6.600
    48   6 C        3.800    -0.064    21.728     6.637
    49   6 C        3.799    -0.055    21.557     6.611
    50   6 C        3.750    -0.108    22.619     6.783
    51   8 O        1.655    -0.433    21.507     6.260
    52   8 O        1.657    -0.433    21.504     6.260
    53   6 C        3.651     0.232    17.267     5.968
    54   6 C        3.722     0.084    19.288     6.272
    55   6 C        3.723     0.095    19.115     6.243
    56   6 C        3.721     0.088    19.234     6.264
    57   6 C        3.741     0.102    18.974     6.215
    58   8 O        1.696    -0.356    19.996     6.037
    59   6 C        3.675     0.072    19.590     6.342
    60   8 O        1.653    -0.480    22.474     6.400
    61   8 O        1.654    -0.477    22.413     6.391
    62   8 O        1.654    -0.483    22.523     6.407
    63   8 O        1.654    -0.480    22.470     6.399
    64   6 C        2.975    -0.030    28.735     8.793
    65   6 C        2.924    -0.022    28.563     8.764
    66   6 C        2.926    -0.030    28.741     8.792
    67   6 C        2.976     0.027    27.389     8.584
    68   6 C        2.926    -0.034    28.837     8.806
    69   6 C        2.926    -0.020    28.500     8.755
    70   6 C        2.975     0.010    27.798     8.648
    71   6 C        2.928    -0.037    28.912     8.818
    72   6 C        2.920    -0.033    28.821     8.804
    73   6 C        2.925    -0.031    28.780     8.798
    74   6 C        2.920    -0.030    28.758     8.794
    75   6 C        2.928    -0.030    28.761     8.795
    76   1 H        0.926     0.065     2.139     2.287
    77   1 H        0.926     0.085     1.924     2.169
    78   1 H        0.924     0.031     2.570     2.507
    79   1 H        0.924     0.082     1.962     2.191
    80   1 H        0.924     0.060     2.197     2.318
    81   1 H        0.923     0.069     2.098     2.265
    82   1 H        0.924     0.052     2.291     2.367
    83   1 H        0.924     0.036     2.506     2.476
    84   1 H        0.924     0.036     2.499     2.472
    85   1 H        0.804     0.347     0.596     1.212
    86   1 H        0.802     0.311     0.690     1.305
    87   1 H        0.924     0.063     2.162     2.300
    88   1 H        0.924     0.044     2.397     2.421
    89   1 H        0.803     0.351     0.585     1.202
    90   1 H        0.923     0.025     2.661     2.551
    91   1 H        0.923     0.050     2.319     2.382
    92   1 H        0.923     0.055     2.264     2.353
    93   1 H        0.923     0.060     2.197     2.318
    94   1 H        0.924     0.083     1.951     2.184
    95   1 H        0.804     0.361     0.563     1.179
    96   1 H        0.803     0.369     0.547     1.162
    97   1 H        0.924     0.099     1.790     2.092
    98   1 H        0.924     0.093     1.852     2.128
    99   1 H        0.926     0.081     1.964     2.191
   100   1 H        0.926     0.074     2.040     2.234
   101   1 H        0.926     0.070     2.081     2.256
   102   1 H        0.926     0.069     2.092     2.262
   103   1 H        0.924     0.075     2.033     2.230
   104   1 H        0.924     0.072     2.068     2.249
   105   1 H        0.923     0.025     2.666     2.553
   106   1 H        0.926     0.055     2.255     2.348
   107   1 H        0.804     0.342     0.607     1.224
   108   1 H        0.926     0.032     2.556     2.500
   109   1 H        0.926     0.047     2.353     2.399
   110   1 H        0.926     0.021     2.725     2.582
   111   1 H        0.924     0.036     2.503     2.474
   112   1 H        0.924     0.041     2.434     2.440
   113   1 H        0.924     0.032     2.555     2.500
   114   1 H        0.924     0.032     2.557     2.501
   115   1 H        0.924     0.034     2.537     2.491
   116   1 H        0.924     0.039     2.467     2.456
   117   1 H        0.923     0.026     2.637     2.540
   118   1 H        0.924     0.033     2.542     2.493
   119   1 H        0.924     0.028     2.612     2.527
   120   1 H        0.924     0.035     2.517     2.481
   121   1 H        0.924     0.037     2.488     2.467
   122   1 H        0.802     0.331     0.636     1.253
   123   1 H        0.804     0.361     0.564     1.180
   124   1 H        0.923     0.014     2.829     2.631
   125   1 H        0.923     0.060     2.197     2.318
   126   1 H        0.923     0.033     2.539     2.492
   127   1 H        0.923     0.055     2.254     2.348
   128   1 H        0.923     0.011     2.871     2.650
   129   1 H        0.924     0.063     2.167     2.302
   130   1 H        0.924     0.053     2.281     2.362
   131   1 H        0.803     0.371     0.541     1.156
   132   1 H        0.804     0.367     0.549     1.164
   133   1 H        0.804     0.358     0.569     1.185
   134   1 H        0.803     0.358     0.570     1.186
   135   1 H        0.926     0.059     2.206     2.323
   136   1 H        0.926     0.067     2.121     2.277
   137   1 H        0.926     0.062     2.180     2.309
   138   1 H        0.926     0.057     2.233     2.337
   139   1 H        0.926     0.044     2.400     2.423
   140   1 H        0.926     0.045     2.386     2.415
   141   1 H        0.926     0.044     2.399     2.422
   142   1 H        0.926     0.045     2.388     2.417
   143   1 H        0.926     0.043     2.405     2.425

 Mol. C6AA /au·bohr⁶  :     205835.605876
 Mol. C8AA /au·bohr⁸  :    4731822.535921
 Mol. α(0) /au        :        686.243783


Wiberg/Mayer (AO) data.
largest (>0.10) Wiberg bond orders for each atom

 ---------------------------------------------------------------------------
     #   Z sym  total        # sym  WBO       # sym  WBO       # sym  WBO
 ---------------------------------------------------------------------------
     1   6 C    3.939 --     6 C    1.386     2 C    1.337    51 O    1.067
     2   6 C    3.972 --     3 C    1.387     1 C    1.337     7 C    0.991
     3   6 C    3.988 --     4 C    1.431     2 C    1.387    13 C    1.001
     4   6 C    3.982 --     3 C    1.431     5 C    1.358    76 H    0.962
     5   6 C    3.944 --     6 C    1.382     4 C    1.358    52 O    1.076
     6   6 C    3.979 --     1 C    1.386     5 C    1.382    77 H    0.961
     7   6 C    3.939 --     2 C    0.991     8 C    0.950    12 O    0.947
                            78 H    0.946
     8   6 C    3.949 --    15 O    1.002     9 C    0.957     7 C    0.950
                            79 H    0.947
     9   6 C    3.925 --    10 C    0.967     8 C    0.957    17 O    0.943
                            80 H    0.939
    10   6 C    3.934 --     9 C    0.967    11 C    0.960    16 O    0.958
                            81 H    0.955
    11   6 C    3.944 --    18 C    0.982    12 O    0.967    10 C    0.960
                            82 H    0.948
    12   8 O    2.063 --    11 C    0.967     7 C    0.947
    13   6 C    3.955 --     3 C    1.001    14 O    0.980    84 H    0.968
                            83 H    0.959
    14   8 O    1.922 --    13 C    0.980    85 H    0.865
    15   8 O    1.959 --     8 C    1.002    86 H    0.850
    16   8 O    2.077 --    20 C    0.975    10 C    0.958
    17   8 O    2.264 --    33 C    1.085     9 C    0.943    35 O    0.147
    18   6 C    3.961 --    19 O    1.013    11 C    0.982    87 H    0.968
                            88 H    0.966
    19   8 O    1.930 --    18 C    1.013    89 H    0.857
    20   6 C    3.921 --    16 O    0.975    21 O    0.958    25 C    0.955
                            90 H    0.940
    21   8 O    2.064 --    20 C    0.958    22 C    0.948
    22   6 C    3.935 --    29 C    0.978    23 C    0.969    91 H    0.951
                            21 O    0.948
    23   6 C    3.966 --    28 O    1.008    22 C    0.969    24 C    0.966
                            92 H    0.956
    24   6 C    3.960 --    26 O    1.000    23 C    0.966    25 C    0.963
                            93 H    0.950
    25   6 C    3.938 --    27 O    0.965    24 C    0.963    20 C    0.955
                            94 H    0.953
    26   8 O    1.933 --    24 C    1.000    95 H    0.852
    27   8 O    2.088 --    53 C    0.981    25 C    0.965
    28   8 O    1.922 --    23 C    1.008    96 H    0.841
    29   6 C    3.919 --    22 C    0.978    97 H    0.961    30 O    0.957
                            98 H    0.957
    30   8 O    2.305 --    31 C    1.120    29 C    0.957    32 O    0.148
    31   6 C    3.888 --    32 O    1.637    30 O    1.120    64 C    1.023
    32   8 O    2.002 --    31 C    1.637    30 O    0.148
    33   6 C    3.899 --    35 O    1.647    17 O    1.085    34 C    1.071
    34   6 C    3.968 --    36 C    1.718    33 C    1.071    99 H    0.960
                            38 C    0.116
    35   8 O    1.985 --    33 C    1.647    17 O    0.147
    36   6 C    3.973 --    34 C    1.718    37 C    1.160   100 H    0.954
    37   6 C    3.985 --    38 C    1.778    36 C    1.160   101 H    0.958
    38   6 C    3.971 --    37 C    1.778    39 C    1.043   102 H    0.962
                            34 C    0.116
    39   6 C    3.983 --    38 C    1.043   104 H    0.965   103 H    0.963
                            40 C    0.941
    40   6 C    3.944 --    41 C    1.008    42 O    0.978   105 H    0.958
                            39 C    0.941
    41   6 C    3.974 --    43 C    1.839    40 C    1.008   106 H    0.963
                            45 C    0.115
    42   8 O    1.913 --    40 C    0.978   107 H    0.868
    43   6 C    3.990 --    41 C    1.839    44 C    1.112   108 H    0.957
    44   6 C    3.988 --    45 C    1.835    43 C    1.112   109 H    0.961
    45   6 C    3.983 --    44 C    1.835    46 C    1.034   110 H    0.963
                            41 C    0.115
    46   6 C    3.995 --    45 C    1.034    47 C    0.984   111 H    0.974
                           112 H    0.957
    47   6 C    3.989 --    48 C    1.007    46 C    0.984   114 H    0.977
                           113 H    0.972
    48   6 C    3.993 --    47 C    1.007    49 C    1.006   115 H    0.976
                           116 H    0.970
    49   6 C    3.996 --    50 C    1.021    48 C    1.006   118 H    0.977
                           117 H    0.975
    50   6 C    3.996 --    49 C    1.021   121 H    0.986   120 H    0.985
                           119 H    0.983
    51   8 O    2.085 --     1 C    1.067   122 H    0.840
    52   8 O    2.085 --     5 C    1.076   123 H    0.851
    53   6 C    3.921 --    27 O    0.981    54 C    0.956    58 O    0.954
                           124 H    0.944
    54   6 C    3.959 --    62 O    1.000    55 C    0.969    53 C    0.956
                           125 H    0.955
    55   6 C    3.966 --    61 O    1.004    54 C    0.969    56 C    0.968
                           126 H    0.960
    56   6 C    3.964 --    60 O    1.002    55 C    0.968    57 C    0.967
                           127 H    0.957
    57   6 C    3.937 --    59 C    0.982    56 C    0.967    58 O    0.952
                           128 H    0.950
    58   8 O    2.064 --    53 C    0.954    57 C    0.952
    59   6 C    3.964 --    63 O    1.018    57 C    0.982   129 H    0.964
                           130 H    0.960
    60   8 O    1.941 --    56 C    1.002   131 H    0.834
    61   8 O    1.934 --    55 C    1.004   132 H    0.848
    62   8 O    1.926 --    54 C    1.000   133 H    0.854
    63   8 O    1.922 --    59 C    1.018   134 H    0.832
    64   6 C    3.975 --    65 C    1.368    69 C    1.365    31 C    1.023
    65   6 C    3.986 --    66 C    1.472    64 C    1.368   135 H    0.965
    66   6 C    3.988 --    65 C    1.472    67 C    1.371   136 H    0.963
    67   6 C    3.984 --    68 C    1.374    66 C    1.371    70 C    1.053
    68   6 C    3.989 --    69 C    1.470    67 C    1.374   137 H    0.962
    69   6 C    3.986 --    68 C    1.470    64 C    1.365   138 H    0.964
    70   6 C    3.987 --    71 C    1.382    75 C    1.382    67 C    1.053
                            73 C    0.104
    71   6 C    3.988 --    72 C    1.454    70 C    1.382   139 H    0.967
                            74 C    0.107
    72   6 C    3.991 --    71 C    1.454    73 C    1.433   140 H    0.969
                            75 C    0.107
    73   6 C    3.983 --    74 C    1.434    72 C    1.433   141 H    0.970
                            70 C    0.104
    74   6 C    3.991 --    75 C    1.454    73 C    1.434   142 H    0.969
                            71 C    0.107
    75   6 C    3.988 --    74 C    1.454    70 C    1.382   143 H    0.966
                            72 C    0.107
    76   1 H    0.995 --     4 C    0.962
    77   1 H    0.992 --     6 C    0.961
    78   1 H    0.999 --     7 C    0.946
    79   1 H    0.993 --     8 C    0.947
    80   1 H    0.996 --     9 C    0.939
    81   1 H    0.995 --    10 C    0.955
    82   1 H    0.997 --    11 C    0.948
    83   1 H    0.998 --    13 C    0.959
    84   1 H    0.998 --    13 C    0.968
    85   1 H    0.879 --    14 O    0.865
    86   1 H    0.903 --    15 O    0.850
    87   1 H    0.995 --    18 C    0.968
    88   1 H    0.998 --    18 C    0.966
    89   1 H    0.877 --    19 O    0.857
    90   1 H    0.999 --    20 C    0.940
    91   1 H    0.997 --    22 C    0.951
    92   1 H    0.997 --    23 C    0.956
    93   1 H    0.996 --    24 C    0.950
    94   1 H    0.993 --    25 C    0.953
    95   1 H    0.869 --    26 O    0.852
    96   1 H    0.864 --    28 O    0.841
    97   1 H    0.989 --    29 C    0.961
    98   1 H    0.991 --    29 C    0.957
    99   1 H    0.993 --    34 C    0.960
   100   1 H    0.994 --    36 C    0.954
   101   1 H    0.995 --    37 C    0.958
   102   1 H    0.995 --    38 C    0.962
   103   1 H    0.991 --    39 C    0.963
   104   1 H    0.994 --    39 C    0.965
   105   1 H    0.999 --    40 C    0.958
   106   1 H    0.997 --    41 C    0.963
   107   1 H    0.882 --    42 O    0.868
   108   1 H    0.999 --    43 C    0.957
   109   1 H    0.998 --    44 C    0.961
   110   1 H    1.000 --    45 C    0.963
   111   1 H    0.999 --    46 C    0.974
   112   1 H    0.995 --    46 C    0.957
   113   1 H    0.999 --    47 C    0.972
   114   1 H    0.999 --    47 C    0.977
   115   1 H    0.999 --    48 C    0.976
   116   1 H    0.998 --    48 C    0.970
   117   1 H    0.999 --    49 C    0.975
   118   1 H    0.999 --    49 C    0.977
   119   1 H    0.999 --    50 C    0.983
   120   1 H    0.999 --    50 C    0.985
   121   1 H    0.999 --    50 C    0.986
   122   1 H    0.890 --    51 O    0.840
   123   1 H    0.869 --    52 O    0.851
   124   1 H    1.000 --    53 C    0.944
   125   1 H    0.996 --    54 C    0.955
   126   1 H    0.999 --    55 C    0.960
   127   1 H    0.996 --    56 C    0.957
   128   1 H    1.000 --    57 C    0.950
   129   1 H    0.996 --    59 C    0.964
   130   1 H    0.996 --    59 C    0.960
   131   1 H    0.862 --    60 O    0.834
   132   1 H    0.865 --    61 O    0.848
   133   1 H    0.871 --    62 O    0.854
   134   1 H    0.872 --    63 O    0.832
   135   1 H    0.996 --    65 C    0.965
   136   1 H    0.995 --    66 C    0.963
   137   1 H    0.996 --    68 C    0.962
   138   1 H    0.996 --    69 C    0.964
   139   1 H    0.998 --    71 C    0.967
   140   1 H    0.997 --    72 C    0.969
   141   1 H    0.998 --    73 C    0.970
   142   1 H    0.997 --    74 C    0.969
   143   1 H    0.998 --    75 C    0.966
 ---------------------------------------------------------------------------

Topologies differ in total number of bonds
Writing topology from bond orders to xtbtopo.mol

molecular dipole:
                 x           y           z       tot (Debye)
 q only:       -1.681      -2.570      -2.358
   full:       -1.078      -2.419      -2.929      10.036
molecular quadrupole (traceless):
                xx          xy          yy          xz          yz          zz
 q only:       22.036      -0.340      -8.370      -6.932     -20.222     -13.666
  q+dip:       22.309       2.898     -22.349      -7.686     -29.980       0.040
   full:       25.132       2.254     -24.634     -11.239     -28.230      -0.498


           -------------------------------------------------
          | TOTAL ENERGY             -235.761150891759 Eh   |
          | GRADIENT NORM               0.122216534466 Eh/α |
          | HOMO-LUMO GAP               1.755694528583 eV   |
           -------------------------------------------------

------------------------------------------------------------------------
 * finished run on 2026/06/19 at 18:52:40.188     
------------------------------------------------------------------------
 total:
 * wall-time:     0 d,  0 h,  0 min,  0.298 sec
 *  cpu-time:     0 d,  0 h,  0 min,  4.538 sec
 * ratio c/w:    15.228 speedup
 SCF:
 * wall-time:     0 d,  0 h,  0 min,  0.248 sec
 *  cpu-time:     0 d,  0 h,  0 min,  3.912 sec
 * ratio c/w:    15.747 speedup

normal termination of xtb
