      -----------------------------------------------------------      
     |                   =====================                   |     
     |                           x T B                           |     
     |                   =====================                   |     
     |                         S. Grimme                         |     
     |          Mulliken Center for Theoretical Chemistry        |     
     |                    University of Bonn                     |     
      -----------------------------------------------------------      

   * xtb version 6.7.1 (edcfbbe) compiled by 'albert@albert-system' on 2024-07-22

   xtb is free software: you can redistribute it and/or modify it under
   the terms of the GNU Lesser General Public License as published by
   the Free Software Foundation, either version 3 of the License, or
   (at your option) any later version.
   
   xtb is distributed in the hope that it will be useful,
   but WITHOUT ANY WARRANTY; without even the implied warranty of
   MERCHANTABILITY or FITNESS FOR A PARTICULAR PURPOSE.  See the
   GNU Lesser General Public License for more details.
   
   Cite this work as:
   * C. Bannwarth, E. Caldeweyher, S. Ehlert, A. Hansen, P. Pracht,
     J. Seibert, S. Spicher, S. Grimme, WIREs Comput. Mol. Sci., 2020, 11,
     e01493. DOI: 10.1002/wcms.1493
   
   for GFN2-xTB:
   * C. Bannwarth, S. Ehlert and S. Grimme., J. Chem. Theory Comput., 2019,
     15, 1652-1671. DOI: 10.1021/acs.jctc.8b01176
   for GFN1-xTB:
   * S. Grimme, C. Bannwarth, P. Shushkov, J. Chem. Theory Comput., 2017,
     13, 1989-2009. DOI: 10.1021/acs.jctc.7b00118
   for GFN0-xTB:
   * P. Pracht, E. Caldeweyher, S. Ehlert, S. Grimme, ChemRxiv, 2019, preprint.
     DOI: 10.26434/chemrxiv.8326202.v1
   for GFN-FF:
   * S. Spicher and S. Grimme, Angew. Chem. Int. Ed., 2020, 59, 15665-15673.
     DOI: 10.1002/anie.202004239
   
   for ALPB and GBSA implicit solvation:
   * S. Ehlert, M. Stahn, S. Spicher, S. Grimme, J. Chem. Theory Comput.,
     2021, 17, 4250-4261. DOI: 10.1021/acs.jctc.1c00471
   
   for ddCOSMO and CPCM-X implicit solvation:
   * M. Stahn, S. Ehlert, S. Grimme, J. Phys. Chem. A,
     2023, XX, XXXX-XXXX. DOI: 10.1021/acs.jpca.3c04382
   
   for DFT-D4:
   * E. Caldeweyher, C. Bannwarth and S. Grimme, J. Chem. Phys., 2017,
     147, 034112. DOI: 10.1063/1.4993215
   * E. Caldeweyher, S. Ehlert, A. Hansen, H. Neugebauer, S. Spicher,
     C. Bannwarth and S. Grimme, J. Chem. Phys., 2019, 150, 154122.
     DOI: 10.1063/1.5090222
   * E. Caldeweyher, J.-M. Mewes, S. Ehlert and S. Grimme, Phys. Chem. Chem. Phys.
     2020, 22, 8499-8512. DOI: 10.1039/D0CP00502A
   
   for sTDA-xTB:
   * S. Grimme and C. Bannwarth, J. Chem. Phys., 2016, 145, 054103.
     DOI: 10.1063/1.4959605
   
   in the mass-spec context:
   * V. Asgeirsson, C. Bauer and S. Grimme, Chem. Sci., 2017, 8, 4879.
     DOI: 10.1039/c7sc00601b
   * J. Koopman and S. Grimme, ACS Omega 2019, 4, 12, 15120-15133.
     DOI: 10.1021/acsomega.9b02011
   
   for metadynamics refer to:
   * S. Grimme, J. Chem. Theory Comput., 2019, 155, 2847-2862
     DOI: 10.1021/acs.jctc.9b00143
   
   for SPH calculations refer to:
   * S. Spicher and S. Grimme, J. Chem. Theory Comput., 2021, 17, 1701-1714
     DOI: 10.1021/acs.jctc.0c01306
   
   for ONIOM refer to:
   * C. Plett, A. Katbashev, S. Ehlert, S. Grimme, M. Bursch,
     Phys. Chem. Chem. Phys., 2023, 25, 17860-17868. DOI: 10.1039/D3CP02178E
   
   for DIPRO refer to:
   * J. Kohn, N. Gildemeister, S. Grimme, D. Fazzi, A. Hansen,
     J. Chem. Phys., 2023, just accepted.
   
   for PTB refer to:
   * S. Grimme, M. Mueller, A. Hansen, J. Chem. Phys., 2023, 158, 124111.
     DOI: 10.1063/5.0137838
   
   with help from (in alphabetical order)
   P. Atkinson, C. Bannwarth, F. Bohle, G. Brandenburg, E. Caldeweyher
   M. Checinski, S. Dohm, S. Ehlert, S. Ehrlich, I. Gerasimov, C. Hölzer
   A. Katbashev, J. Kohn, J. Koopman, C. Lavigne, S. Lehtola, F. März, M. Müller,
   F. Musil, H. Neugebauer, J. Pisarek, C. Plett, P. Pracht, F. Pultar,
   J. Seibert, P. Shushkov, S. Spicher, M. Stahn, M. Steiner, T. Strunk,
   J. Stückrath, T. Rose, and J. Unsleber
   
 * started run on 2026/06/19 at 18:52:40.516     
   ID    Z sym.   atoms
    1    6 C      1-11, 13, 18, 20, 22-25, 29, 31, 33, 34, 36-41, 43-50,
                  53-57, 59, 64-75
    2    8 O      12, 14-17, 19, 21, 26-28, 30, 32, 35, 42, 51, 52, 58, 60-63
    3    1 H      76-143

           -------------------------------------------------
          |                Calculation Setup                |
           -------------------------------------------------

          program call               : xtb PAPU-0080/conf05.xyz --gfn 2 --alpb octanol --chrg 0 --uhf 0 --namespace PAPU-0080/conf05_octanol
          hostname                   : cpu10
          calculation namespace      : PAPU-0080/conf05_octanol
          coordinate file            : PAPU-0080/conf05.xyz
          omp threads                :                    16


           -------------------------------------------------
          |                 G F N 2 - x T B                 |
           -------------------------------------------------

        Reference                      10.1021/acs.jctc.8b01176
      * Hamiltonian:
        H0-scaling (s, p, d)           1.850000    2.230000    2.230000
        zeta-weighting                 0.500000
      * Dispersion:
        s8                             2.700000
        a1                             0.520000
        a2                             5.000000
        s9                             5.000000
      * Repulsion:
        kExp                           1.500000    1.000000
        rExp                           1.000000
      * Coulomb:
        alpha                          2.000000
        third order                    shell-resolved
        anisotropic                    true
        a3                             3.000000
        a5                             4.000000
        cn-shift                       1.200000
        cn-exp                         4.000000
        max-rad                        5.000000

      * Solvation model:               ALPB
        Solvent                        octanol
        Parameter file                 internal GFN2-xTB/ALPB
        Dielectric constant                9.8629E+00
        Reference state                gsolv [1 M gas/solution]
        Free energy shift                  2.3397E-03 Eh       1.4682E+00 kcal/mol
        Temperature                        2.9815E+02 K
        Density                            8.3000E-01 kg/L
        Solvent mass                       1.3023E+02 g/mol
        Interaction kernel             P16
        Born radius scaling (c1)           1.5898E+00
        Born radii integrator          GBOBC
        Born offset                        0.0000E+00 a0       0.0000E+00 AA
        H-bond correction              true
        Ion screening                  false
        Surface tension                    1.0000E-05 Eh       1.5569E+01 dyn/cm
        Grid points                               230 per atom

          ...................................................
          :                      SETUP                      :
          :.................................................:
          :  # basis functions                 368          :
          :  # atomic orbitals                 368          :
          :  # shells                          218          :
          :  # electrons                       410          :
          :  max. iterations                   250          :
          :  Hamiltonian                  GFN2-xTB          :
          :  restarted?                      false          :
          :  GBSA solvation                   true          :
          :  PC potential                    false          :
          :  electronic temp.          300.0000000     K    :
          :  accuracy                    1.0000000          :
          :  -> integral cutoff          0.2500000E+02      :
          :  -> integral neglect         0.1000000E-07      :
          :  -> SCF convergence          0.1000000E-05 Eh   :
          :  -> wf. convergence          0.1000000E-03 e    :
          :  Broyden damping             0.4000000          :
          :  net charge                          0          :
          :  unpaired electrons                  0          :
          ...................................................

 iter      E             dE          RMSdq      gap      omega  full diag
   1   -238.1409921 -0.238141E+03  0.444E+00    2.41       0.0  T
   2   -238.3571204 -0.216128E+00  0.245E+00    1.68       1.0  T
   3   -238.3365658  0.205547E-01  0.103E+00    1.75       1.0  T
   4   -238.3767693 -0.402035E-01  0.316E-01    1.53       1.0  T
   5   -238.3833621 -0.659279E-02  0.133E-01    1.52       1.0  T
   6   -238.3844396 -0.107753E-02  0.624E-02    1.53       1.0  T
   7   -238.3845798 -0.140169E-03  0.274E-02    1.54       1.0  T
   8   -238.3846056 -0.257956E-04  0.120E-02    1.54       1.0  T
   9   -238.3846107 -0.508201E-05  0.620E-03    1.54       1.3  T
  10   -238.3846131 -0.239719E-05  0.273E-03    1.54       3.1  T
  11   -238.3846133 -0.231448E-06  0.137E-03    1.54       6.1  T
  12   -238.3846133 -0.422268E-07  0.551E-04    1.54      15.2  T
  13   -238.3846133 -0.129250E-07  0.258E-04    1.54      32.4  T

   *** convergence criteria satisfied after 13 iterations ***

         #    Occupation            Energy/Eh            Energy/eV
      -------------------------------------------------------------
         1        2.0000           -0.7770907             -21.1457
       ...           ...                  ...                  ...
       199        2.0000           -0.4111149             -11.1870
       200        2.0000           -0.4083386             -11.1115
       201        2.0000           -0.4078331             -11.0977
       202        2.0000           -0.3982584             -10.8372
       203        2.0000           -0.3972251             -10.8090
       204        2.0000           -0.3894168             -10.5966
       205        2.0000           -0.3770773             -10.2608 (HOMO)
       206                         -0.3206148              -8.7244 (LUMO)
       207                         -0.2995225              -8.1504
       208                         -0.2479730              -6.7477
       209                         -0.2467145              -6.7134
       210                         -0.2432404              -6.6189
       ...                                ...                  ...
       368                          0.6907485              18.7962
      -------------------------------------------------------------
                  HL-Gap            0.0564625 Eh            1.5364 eV
             Fermi-level           -0.3488461 Eh           -9.4926 eV

 SCC (total)                   0 d,  0 h,  0 min,  0.247 sec
 SCC setup                      ...        0 min,  0.004 sec (  1.505%)
 Dispersion                     ...        0 min,  0.005 sec (  1.883%)
 classical contributions        ...        0 min,  0.000 sec (  0.065%)
 integral evaluation            ...        0 min,  0.011 sec (  4.455%)
 iterations                     ...        0 min,  0.187 sec ( 75.725%)
 molecular gradient             ...        0 min,  0.038 sec ( 15.446%)
 printout                       ...        0 min,  0.002 sec (  0.902%)

         :::::::::::::::::::::::::::::::::::::::::::::::::::::
         ::                     SUMMARY                     ::
         :::::::::::::::::::::::::::::::::::::::::::::::::::::
         :: total energy            -235.766168860972 Eh    ::
         :: total w/o Gsasa/hb      -235.689846680097 Eh    ::
         :: gradient norm              0.127962537547 Eh/a0 ::
         :: HOMO-LUMO gap              1.536423275306 eV    ::
         ::.................................................::
         :: SCC energy              -238.370982851376 Eh    ::
         :: -> isotropic ES            0.532458484659 Eh    ::
         :: -> anisotropic ES         -0.031221869009 Eh    ::
         :: -> anisotropic XC          0.023460527313 Eh    ::
         :: -> dispersion             -0.198716563976 Eh    ::
         :: -> Gsolv                  -0.108099392365 Eh    ::
         ::    -> Gelec               -0.031777211489 Eh    ::
         ::    -> Gsasa               -0.030277783175 Eh    ::
         ::    -> Ghb                 -0.048384067076 Eh    ::
         ::    -> Gshift               0.002339669376 Eh    ::
         :: repulsion energy           2.604813990403 Eh    ::
         :: add. restraining           0.000000000000 Eh    ::
         :: total charge              -0.000000000000 e     ::
         :::::::::::::::::::::::::::::::::::::::::::::::::::::

           -------------------------------------------------
          |                Property Printout                |
           -------------------------------------------------

    * Orbital Energies and Occupations

         #    Occupation            Energy/Eh            Energy/eV
      -------------------------------------------------------------
         1        2.0000           -0.7770907             -21.1457
       ...           ...                  ...                  ...
       193        2.0000           -0.4245069             -11.5514
       194        2.0000           -0.4242801             -11.5452
       195        2.0000           -0.4206958             -11.4477
       196        2.0000           -0.4198354             -11.4243
       197        2.0000           -0.4182215             -11.3804
       198        2.0000           -0.4154423             -11.3048
       199        2.0000           -0.4111149             -11.1870
       200        2.0000           -0.4083386             -11.1115
       201        2.0000           -0.4078331             -11.0977
       202        2.0000           -0.3982584             -10.8372
       203        2.0000           -0.3972251             -10.8090
       204        2.0000           -0.3894168             -10.5966
       205        2.0000           -0.3770773             -10.2608 (HOMO)
       206                         -0.3206148              -8.7244 (LUMO)
       207                         -0.2995225              -8.1504
       208                         -0.2479730              -6.7477
       209                         -0.2467145              -6.7134
       210                         -0.2432404              -6.6189
       211                         -0.2371485              -6.4531
       212                         -0.2333105              -6.3487
       213                         -0.2274140              -6.1882
       214                         -0.2245348              -6.1099
       215                         -0.2012924              -5.4774
       216                         -0.1698633              -4.6222
       ...                                ...                  ...
       368                          0.6907485              18.7962
      -------------------------------------------------------------
                  HL-Gap            0.0564625 Eh            1.5364 eV
             Fermi-level           -0.3488461 Eh           -9.4926 eV

     #   Z          covCN         q      C6AA      α(0)
     1   6 C        2.837     0.146    24.819     8.164
     2   6 C        2.970    -0.055    29.359     8.888
     3   6 C        2.966    -0.002    28.081     8.692
     4   6 C        2.931    -0.092    30.306     9.028
     5   6 C        2.836     0.148    24.782     8.158
     6   6 C        2.923    -0.082    30.055     8.990
     7   6 C        3.743     0.096    19.058     6.228
     8   6 C        3.722     0.094    19.122     6.245
     9   6 C        3.779     0.099    18.965     6.204
    10   6 C        3.746     0.093    19.103     6.235
    11   6 C        3.741     0.084    19.265     6.262
    12   8 O        1.694    -0.352    19.936     6.028
    13   6 C        3.683     0.073    19.563     6.333
    14   8 O        1.653    -0.487    22.612     6.419
    15   8 O        1.652    -0.464    22.124     6.349
    16   8 O        1.698    -0.334    19.607     5.978
    17   8 O        1.702    -0.295    18.907     5.871
    18   6 C        3.675     0.071    19.612     6.346
    19   8 O        1.654    -0.475    22.359     6.383
    20   6 C        3.646     0.250    17.027     5.930
    21   8 O        1.696    -0.357    20.021     6.041
    22   6 C        3.748     0.106    18.896     6.200
    23   6 C        3.721     0.089    19.211     6.260
    24   6 C        3.722     0.080    19.360     6.284
    25   6 C        3.750     0.084    19.242     6.256
    26   8 O        1.654    -0.480    22.468     6.399
    27   8 O        1.699    -0.323    19.405     5.947
    28   8 O        1.653    -0.482    22.519     6.406
    29   6 C        3.722     0.060    19.669     6.333
    30   8 O        1.703    -0.257    18.260     5.769
    31   6 C        2.746     0.361    20.871     7.480
    32   8 O        0.857    -0.478    23.305     6.472
    33   6 C        2.751     0.360    20.899     7.486
    34   6 C        2.896    -0.095    30.383     9.037
    35   8 O        0.858    -0.493    23.630     6.517
    36   6 C        2.905    -0.000    28.034     8.682
    37   6 C        2.898    -0.043    29.074     8.841
    38   6 C        2.896    -0.014    28.358     8.731
    39   6 C        3.806    -0.083    22.083     6.690
    40   6 C        3.728     0.118    18.743     6.181
    41   6 C        2.893    -0.070    29.751     8.943
    42   8 O        1.652    -0.491    22.694     6.431
    43   6 C        2.898    -0.040    28.985     8.827
    44   6 C        2.898    -0.051    29.275     8.871
    45   6 C        2.896    -0.032    28.791     8.798
    46   6 C        3.805    -0.064    21.730     6.636
    47   6 C        3.802    -0.053    21.527     6.606
    48   6 C        3.800    -0.061    21.665     6.627
    49   6 C        3.799    -0.054    21.548     6.609
    50   6 C        3.751    -0.116    22.783     6.807
    51   8 O        1.655    -0.428    21.407     6.246
    52   8 O        1.657    -0.433    21.502     6.260
    53   6 C        3.644     0.236    17.228     5.966
    54   6 C        3.722     0.084    19.283     6.271
    55   6 C        3.723     0.096    19.095     6.240
    56   6 C        3.722     0.087    19.245     6.265
    57   6 C        3.738     0.103    18.962     6.214
    58   8 O        1.696    -0.356    19.997     6.038
    59   6 C        3.674     0.066    19.696     6.359
    60   8 O        1.653    -0.479    22.443     6.395
    61   8 O        1.654    -0.477    22.399     6.389
    62   8 O        1.654    -0.483    22.528     6.407
    63   8 O        1.652    -0.468    22.227     6.364
    64   6 C        2.975    -0.029    28.730     8.792
    65   6 C        2.925    -0.023    28.589     8.768
    66   6 C        2.926    -0.034    28.852     8.809
    67   6 C        2.975     0.027    27.401     8.586
    68   6 C        2.926    -0.030    28.761     8.795
    69   6 C        2.924    -0.024    28.597     8.770
    70   6 C        2.975     0.008    27.829     8.653
    71   6 C        2.928    -0.038    28.941     8.822
    72   6 C        2.920    -0.032    28.805     8.801
    73   6 C        2.925    -0.029    28.719     8.788
    74   6 C        2.920    -0.031    28.771     8.796
    75   6 C        2.928    -0.032    28.791     8.800
    76   1 H        0.926     0.072     2.069     2.249
    77   1 H        0.926     0.084     1.935     2.175
    78   1 H        0.924     0.037     2.485     2.465
    79   1 H        0.924     0.056     2.243     2.342
    80   1 H        0.923     0.062     2.171     2.304
    81   1 H        0.923     0.070     2.081     2.256
    82   1 H        0.924     0.056     2.246     2.343
    83   1 H        0.924     0.028     2.611     2.527
    84   1 H        0.924     0.071     2.074     2.252
    85   1 H        0.804     0.341     0.611     1.228
    86   1 H        0.802     0.317     0.673     1.289
    87   1 H        0.924     0.068     2.109     2.271
    88   1 H        0.924     0.047     2.353     2.399
    89   1 H        0.804     0.351     0.586     1.203
    90   1 H        0.923     0.011     2.878     2.653
    91   1 H        0.923     0.046     2.374     2.410
    92   1 H        0.923     0.055     2.258     2.350
    93   1 H        0.923     0.068     2.105     2.269
    94   1 H        0.924     0.087     1.905     2.159
    95   1 H        0.804     0.361     0.564     1.180
    96   1 H        0.803     0.368     0.547     1.162
    97   1 H        0.924     0.101     1.772     2.082
    98   1 H        0.924     0.090     1.877     2.143
    99   1 H        0.926     0.084     1.936     2.176
   100   1 H        0.926     0.075     2.034     2.230
   101   1 H        0.926     0.074     2.044     2.235
   102   1 H        0.926     0.070     2.084     2.257
   103   1 H        0.924     0.081     1.971     2.195
   104   1 H        0.924     0.062     2.174     2.306
   105   1 H        0.923     0.054     2.266     2.354
   106   1 H        0.926     0.057     2.231     2.336
   107   1 H        0.804     0.339     0.615     1.232
   108   1 H        0.926     0.026     2.639     2.540
   109   1 H        0.926     0.050     2.319     2.381
   110   1 H        0.926     0.017     2.786     2.610
   111   1 H        0.924     0.040     2.443     2.444
   112   1 H        0.924     0.044     2.396     2.421
   113   1 H        0.924     0.029     2.596     2.520
   114   1 H        0.924     0.032     2.557     2.501
   115   1 H        0.924     0.035     2.514     2.479
   116   1 H        0.924     0.024     2.675     2.558
   117   1 H        0.924     0.030     2.588     2.516
   118   1 H        0.924     0.028     2.609     2.526
   119   1 H        0.925     0.050     2.316     2.380
   120   1 H        0.924     0.036     2.508     2.476
   121   1 H        0.924     0.033     2.542     2.493
   122   1 H        0.802     0.324     0.655     1.271
   123   1 H        0.804     0.360     0.565     1.181
   124   1 H        0.923     0.003     2.998     2.708
   125   1 H        0.923     0.062     2.179     2.308
   126   1 H        0.923     0.031     2.574     2.509
   127   1 H        0.923     0.051     2.309     2.377
   128   1 H        0.923     0.008     2.926     2.675
   129   1 H        0.924     0.058     2.226     2.333
   130   1 H        0.924     0.093     1.853     2.129
   131   1 H        0.803     0.368     0.548     1.163
   132   1 H        0.804     0.367     0.550     1.165
   133   1 H        0.804     0.358     0.569     1.185
   134   1 H        0.801     0.310     0.693     1.308
   135   1 H        0.926     0.059     2.211     2.325
   136   1 H        0.926     0.062     2.175     2.306
   137   1 H        0.926     0.069     2.094     2.263
   138   1 H        0.926     0.058     2.222     2.331
   139   1 H        0.926     0.044     2.393     2.419
   140   1 H        0.926     0.045     2.377     2.411
   141   1 H        0.926     0.046     2.374     2.410
   142   1 H        0.926     0.045     2.388     2.416
   143   1 H        0.926     0.041     2.436     2.441

 Mol. C6AA /au·bohr⁶  :     205692.946316
 Mol. C8AA /au·bohr⁸  :    4729992.872986
 Mol. α(0) /au        :        686.007867


Wiberg/Mayer (AO) data.
largest (>0.10) Wiberg bond orders for each atom

 ---------------------------------------------------------------------------
     #   Z sym  total        # sym  WBO       # sym  WBO       # sym  WBO
 ---------------------------------------------------------------------------
     1   6 C    3.938 --     6 C    1.385     2 C    1.337    51 O    1.069
     2   6 C    3.967 --     3 C    1.381     1 C    1.337     7 C    0.991
     3   6 C    3.986 --     4 C    1.430     2 C    1.381    13 C    1.000
     4   6 C    3.981 --     3 C    1.430     5 C    1.360    76 H    0.960
     5   6 C    3.943 --     6 C    1.383     4 C    1.360    52 O    1.071
     6   6 C    3.978 --     1 C    1.385     5 C    1.383    77 H    0.960
     7   6 C    3.939 --     2 C    0.991    12 O    0.952     8 C    0.946
                            78 H    0.945
     8   6 C    3.954 --    15 O    1.004    79 H    0.957     9 C    0.956
                             7 C    0.946
     9   6 C    3.924 --    10 C    0.970     8 C    0.956    17 O    0.941
                            80 H    0.937
    10   6 C    3.935 --     9 C    0.970    16 O    0.960    11 C    0.958
                            81 H    0.956
    11   6 C    3.944 --    18 C    0.982    12 O    0.967    10 C    0.958
                            82 H    0.946
    12   8 O    2.055 --    11 C    0.967     7 C    0.952
    13   6 C    3.956 --     3 C    1.000    14 O    0.997    83 H    0.959
                            84 H    0.952
    14   8 O    1.929 --    13 C    0.997    85 H    0.870
    15   8 O    1.959 --     8 C    1.004    86 H    0.848
    16   8 O    2.080 --    20 C    0.980    10 C    0.960
    17   8 O    2.262 --    33 C    1.087     9 C    0.941    35 O    0.140
    18   6 C    3.959 --    19 O    1.012    11 C    0.982    87 H    0.967
                            88 H    0.966
    19   8 O    1.931 --    18 C    1.012    89 H    0.860
    20   6 C    3.923 --    16 O    0.980    21 O    0.956    25 C    0.955
                            90 H    0.938
    21   8 O    2.064 --    20 C    0.956    22 C    0.949
    22   6 C    3.935 --    29 C    0.976    23 C    0.970    21 O    0.949
                            91 H    0.949
    23   6 C    3.966 --    28 O    1.008    22 C    0.970    24 C    0.967
                            92 H    0.956
    24   6 C    3.957 --    26 O    1.000    23 C    0.967    25 C    0.962
                            93 H    0.945
    25   6 C    3.936 --    27 O    0.965    24 C    0.962    20 C    0.955
                            94 H    0.953
    26   8 O    1.933 --    24 C    1.000    95 H    0.852
    27   8 O    2.089 --    53 C    0.982    25 C    0.965
    28   8 O    1.922 --    23 C    1.008    96 H    0.841
    29   6 C    3.919 --    22 C    0.976    97 H    0.962    30 O    0.959
                            98 H    0.957
    30   8 O    2.307 --    31 C    1.122    29 C    0.959    32 O    0.148
    31   6 C    3.886 --    32 O    1.638    30 O    1.122    64 C    1.019
    32   8 O    2.002 --    31 C    1.638    30 O    0.148
    33   6 C    3.894 --    35 O    1.611    17 O    1.087    34 C    1.084
    34   6 C    3.964 --    36 C    1.698    33 C    1.084    99 H    0.961
                            38 C    0.111
    35   8 O    1.983 --    33 C    1.611    17 O    0.140
    36   6 C    3.969 --    34 C    1.698    37 C    1.169   100 H    0.952
    37   6 C    3.984 --    38 C    1.757    36 C    1.169   101 H    0.958
    38   6 C    3.969 --    37 C    1.757    39 C    1.050   102 H    0.961
                            34 C    0.111
    39   6 C    3.983 --    38 C    1.050   104 H    0.969   103 H    0.957
                            40 C    0.931
    40   6 C    3.941 --    41 C    1.007    42 O    0.989   105 H    0.951
                            39 C    0.931
    41   6 C    3.975 --    43 C    1.829    40 C    1.007   106 H    0.962
                            45 C    0.125
    42   8 O    1.935 --    40 C    0.989   107 H    0.869
    43   6 C    3.991 --    41 C    1.829    44 C    1.122   108 H    0.959
    44   6 C    3.988 --    45 C    1.828    43 C    1.122   109 H    0.961
    45   6 C    3.985 --    44 C    1.828    46 C    1.033   110 H    0.966
                            41 C    0.125
    46   6 C    3.995 --    45 C    1.033    47 C    0.983   111 H    0.972
                           112 H    0.962
    47   6 C    3.988 --    48 C    1.006    46 C    0.983   114 H    0.975
                           113 H    0.975
    48   6 C    3.995 --    49 C    1.006    47 C    1.006   116 H    0.977
                           115 H    0.976
    49   6 C    3.996 --    50 C    1.021    48 C    1.006   117 H    0.977
                           118 H    0.976
    50   6 C    3.994 --    49 C    1.021   121 H    0.987   120 H    0.987
                           119 H    0.979
    51   8 O    2.093 --     1 C    1.069   122 H    0.843
    52   8 O    2.089 --     5 C    1.071   123 H    0.851
    53   6 C    3.923 --    27 O    0.982    54 C    0.955    58 O    0.954
                           124 H    0.945
    54   6 C    3.958 --    62 O    1.000    55 C    0.969    53 C    0.955
                           125 H    0.955
    55   6 C    3.966 --    61 O    1.004    54 C    0.969    56 C    0.967
                           126 H    0.960
    56   6 C    3.968 --    60 O    1.009    55 C    0.967    57 C    0.967
                           127 H    0.957
    57   6 C    3.938 --    59 C    0.982    56 C    0.967    58 O    0.949
                           128 H    0.948
    58   8 O    2.065 --    53 C    0.954    57 C    0.949
    59   6 C    3.950 --    63 O    1.005    57 C    0.982   130 H    0.964
                           129 H    0.962
    60   8 O    1.925 --    56 C    1.009   131 H    0.842
    61   8 O    1.933 --    55 C    1.004   132 H    0.848
    62   8 O    1.926 --    54 C    1.000   133 H    0.853
    63   8 O    1.939 --    59 C    1.005   134 H    0.849
    64   6 C    3.974 --    69 C    1.370    65 C    1.366    31 C    1.019
    65   6 C    3.986 --    66 C    1.471    64 C    1.366   135 H    0.963
    66   6 C    3.989 --    65 C    1.471    67 C    1.373   136 H    0.962
    67   6 C    3.984 --    66 C    1.373    68 C    1.372    70 C    1.055
    68   6 C    3.987 --    69 C    1.470    67 C    1.372   137 H    0.962
    69   6 C    3.986 --    68 C    1.470    64 C    1.370   138 H    0.964
    70   6 C    3.987 --    71 C    1.383    75 C    1.381    67 C    1.055
                            73 C    0.104
    71   6 C    3.988 --    72 C    1.454    70 C    1.383   139 H    0.966
                            74 C    0.107
    72   6 C    3.991 --    71 C    1.454    73 C    1.431   140 H    0.969
                            75 C    0.107
    73   6 C    3.982 --    74 C    1.433    72 C    1.431   141 H    0.970
                            70 C    0.104
    74   6 C    3.991 --    75 C    1.455    73 C    1.433   142 H    0.969
                            71 C    0.107
    75   6 C    3.988 --    74 C    1.455    70 C    1.381   143 H    0.965
                            72 C    0.107
    76   1 H    0.995 --     4 C    0.960
    77   1 H    0.992 --     6 C    0.960
    78   1 H    0.998 --     7 C    0.945
    79   1 H    0.997 --     8 C    0.957
    80   1 H    0.996 --     9 C    0.937
    81   1 H    0.994 --    10 C    0.956
    82   1 H    0.997 --    11 C    0.946
    83   1 H    0.999 --    13 C    0.959
    84   1 H    0.995 --    13 C    0.952
    85   1 H    0.884 --    14 O    0.870
    86   1 H    0.900 --    15 O    0.848
    87   1 H    0.995 --    18 C    0.967
    88   1 H    0.998 --    18 C    0.966
    89   1 H    0.877 --    19 O    0.860
    90   1 H    1.000 --    20 C    0.938
    91   1 H    0.998 --    22 C    0.949
    92   1 H    0.997 --    23 C    0.956
    93   1 H    0.995 --    24 C    0.945
    94   1 H    0.992 --    25 C    0.953
    95   1 H    0.870 --    26 O    0.852
    96   1 H    0.864 --    28 O    0.841
    97   1 H    0.989 --    29 C    0.962
    98   1 H    0.991 --    29 C    0.957
    99   1 H    0.993 --    34 C    0.961
   100   1 H    0.994 --    36 C    0.952
   101   1 H    0.994 --    37 C    0.958
   102   1 H    0.995 --    38 C    0.961
   103   1 H    0.988 --    39 C    0.957
   104   1 H    0.996 --    39 C    0.969
   105   1 H    0.997 --    40 C    0.951
   106   1 H    0.997 --    41 C    0.962
   107   1 H    0.885 --    42 O    0.869
   108   1 H    0.999 --    43 C    0.959
   109   1 H    0.997 --    44 C    0.961
   110   1 H    1.000 --    45 C    0.966
   111   1 H    0.998 --    46 C    0.972
   112   1 H    0.995 --    46 C    0.962
   113   1 H    0.999 --    47 C    0.975
   114   1 H    0.999 --    47 C    0.975
   115   1 H    0.999 --    48 C    0.976
   116   1 H    0.999 --    48 C    0.977
   117   1 H    0.999 --    49 C    0.977
   118   1 H    0.999 --    49 C    0.976
   119   1 H    0.997 --    50 C    0.979
   120   1 H    0.998 --    50 C    0.987
   121   1 H    0.999 --    50 C    0.987
   122   1 H    0.895 --    51 O    0.843
   123   1 H    0.870 --    52 O    0.851
   124   1 H    1.000 --    53 C    0.945
   125   1 H    0.996 --    54 C    0.955
   126   1 H    0.999 --    55 C    0.960
   127   1 H    0.997 --    56 C    0.957
   128   1 H    1.000 --    57 C    0.948
   129   1 H    0.996 --    59 C    0.962
   130   1 H    0.991 --    59 C    0.964
   131   1 H    0.864 --    60 O    0.842
   132   1 H    0.865 --    61 O    0.848
   133   1 H    0.871 --    62 O    0.853
   134   1 H    0.904 --    63 O    0.849
   135   1 H    0.996 --    65 C    0.963
   136   1 H    0.995 --    66 C    0.962
   137   1 H    0.995 --    68 C    0.962
   138   1 H    0.996 --    69 C    0.964
   139   1 H    0.998 --    71 C    0.966
   140   1 H    0.997 --    72 C    0.969
   141   1 H    0.997 --    73 C    0.970
   142   1 H    0.997 --    74 C    0.969
   143   1 H    0.998 --    75 C    0.965
 ---------------------------------------------------------------------------

Topologies differ in total number of bonds
Writing topology from bond orders to xtbtopo.mol

molecular dipole:
                 x           y           z       tot (Debye)
 q only:       -2.019      -3.437      -2.197
   full:       -1.368      -3.449      -2.730      11.709
molecular quadrupole (traceless):
                xx          xy          yy          xz          yz          zz
 q only:        4.707      -4.386       5.209       3.196       7.467      -9.916
  q+dip:        3.696      -3.202      -5.389       6.410       5.691       1.692
   full:        4.303      -4.646      -7.812       2.050       8.753       3.509


           -------------------------------------------------
          | TOTAL ENERGY             -235.766168860972 Eh   |
          | GRADIENT NORM               0.127962537547 Eh/α |
          | HOMO-LUMO GAP               1.536423275306 eV   |
           -------------------------------------------------

------------------------------------------------------------------------
 * finished run on 2026/06/19 at 18:52:40.816     
------------------------------------------------------------------------
 total:
 * wall-time:     0 d,  0 h,  0 min,  0.300 sec
 *  cpu-time:     0 d,  0 h,  0 min,  4.596 sec
 * ratio c/w:    15.337 speedup
 SCF:
 * wall-time:     0 d,  0 h,  0 min,  0.248 sec
 *  cpu-time:     0 d,  0 h,  0 min,  3.912 sec
 * ratio c/w:    15.783 speedup

normal termination of xtb
