      -----------------------------------------------------------      
     |                   =====================                   |     
     |                           x T B                           |     
     |                   =====================                   |     
     |                         S. Grimme                         |     
     |          Mulliken Center for Theoretical Chemistry        |     
     |                    University of Bonn                     |     
      -----------------------------------------------------------      

   * xtb version 6.7.1 (edcfbbe) compiled by 'albert@albert-system' on 2024-07-22

   xtb is free software: you can redistribute it and/or modify it under
   the terms of the GNU Lesser General Public License as published by
   the Free Software Foundation, either version 3 of the License, or
   (at your option) any later version.
   
   xtb is distributed in the hope that it will be useful,
   but WITHOUT ANY WARRANTY; without even the implied warranty of
   MERCHANTABILITY or FITNESS FOR A PARTICULAR PURPOSE.  See the
   GNU Lesser General Public License for more details.
   
   Cite this work as:
   * C. Bannwarth, E. Caldeweyher, S. Ehlert, A. Hansen, P. Pracht,
     J. Seibert, S. Spicher, S. Grimme, WIREs Comput. Mol. Sci., 2020, 11,
     e01493. DOI: 10.1002/wcms.1493
   
   for GFN2-xTB:
   * C. Bannwarth, S. Ehlert and S. Grimme., J. Chem. Theory Comput., 2019,
     15, 1652-1671. DOI: 10.1021/acs.jctc.8b01176
   for GFN1-xTB:
   * S. Grimme, C. Bannwarth, P. Shushkov, J. Chem. Theory Comput., 2017,
     13, 1989-2009. DOI: 10.1021/acs.jctc.7b00118
   for GFN0-xTB:
   * P. Pracht, E. Caldeweyher, S. Ehlert, S. Grimme, ChemRxiv, 2019, preprint.
     DOI: 10.26434/chemrxiv.8326202.v1
   for GFN-FF:
   * S. Spicher and S. Grimme, Angew. Chem. Int. Ed., 2020, 59, 15665-15673.
     DOI: 10.1002/anie.202004239
   
   for ALPB and GBSA implicit solvation:
   * S. Ehlert, M. Stahn, S. Spicher, S. Grimme, J. Chem. Theory Comput.,
     2021, 17, 4250-4261. DOI: 10.1021/acs.jctc.1c00471
   
   for ddCOSMO and CPCM-X implicit solvation:
   * M. Stahn, S. Ehlert, S. Grimme, J. Phys. Chem. A,
     2023, XX, XXXX-XXXX. DOI: 10.1021/acs.jpca.3c04382
   
   for DFT-D4:
   * E. Caldeweyher, C. Bannwarth and S. Grimme, J. Chem. Phys., 2017,
     147, 034112. DOI: 10.1063/1.4993215
   * E. Caldeweyher, S. Ehlert, A. Hansen, H. Neugebauer, S. Spicher,
     C. Bannwarth and S. Grimme, J. Chem. Phys., 2019, 150, 154122.
     DOI: 10.1063/1.5090222
   * E. Caldeweyher, J.-M. Mewes, S. Ehlert and S. Grimme, Phys. Chem. Chem. Phys.
     2020, 22, 8499-8512. DOI: 10.1039/D0CP00502A
   
   for sTDA-xTB:
   * S. Grimme and C. Bannwarth, J. Chem. Phys., 2016, 145, 054103.
     DOI: 10.1063/1.4959605
   
   in the mass-spec context:
   * V. Asgeirsson, C. Bauer and S. Grimme, Chem. Sci., 2017, 8, 4879.
     DOI: 10.1039/c7sc00601b
   * J. Koopman and S. Grimme, ACS Omega 2019, 4, 12, 15120-15133.
     DOI: 10.1021/acsomega.9b02011
   
   for metadynamics refer to:
   * S. Grimme, J. Chem. Theory Comput., 2019, 155, 2847-2862
     DOI: 10.1021/acs.jctc.9b00143
   
   for SPH calculations refer to:
   * S. Spicher and S. Grimme, J. Chem. Theory Comput., 2021, 17, 1701-1714
     DOI: 10.1021/acs.jctc.0c01306
   
   for ONIOM refer to:
   * C. Plett, A. Katbashev, S. Ehlert, S. Grimme, M. Bursch,
     Phys. Chem. Chem. Phys., 2023, 25, 17860-17868. DOI: 10.1039/D3CP02178E
   
   for DIPRO refer to:
   * J. Kohn, N. Gildemeister, S. Grimme, D. Fazzi, A. Hansen,
     J. Chem. Phys., 2023, just accepted.
   
   for PTB refer to:
   * S. Grimme, M. Mueller, A. Hansen, J. Chem. Phys., 2023, 158, 124111.
     DOI: 10.1063/5.0137838
   
   with help from (in alphabetical order)
   P. Atkinson, C. Bannwarth, F. Bohle, G. Brandenburg, E. Caldeweyher
   M. Checinski, S. Dohm, S. Ehlert, S. Ehrlich, I. Gerasimov, C. Hölzer
   A. Katbashev, J. Kohn, J. Koopman, C. Lavigne, S. Lehtola, F. März, M. Müller,
   F. Musil, H. Neugebauer, J. Pisarek, C. Plett, P. Pracht, F. Pultar,
   J. Seibert, P. Shushkov, S. Spicher, M. Stahn, M. Steiner, T. Strunk,
   J. Stückrath, T. Rose, and J. Unsleber
   
 * started run on 2026/06/19 at 18:52:10.599     
   ID    Z sym.   atoms
    1    6 C      1-6, 9, 11-15, 20, 22-37, 40, 42-46, 50-54, 60, 62, 63,
                  65-72
    2    8 O      7, 8, 10, 16-19, 21, 38, 39, 41, 47-49, 55-59, 61, 64
    3    1 H      73-146

           -------------------------------------------------
          |                Calculation Setup                |
           -------------------------------------------------

          program call               : xtb PAPU-0066/conf04.xyz --gfn 2 --alpb octanol --chrg 0 --uhf 0 --namespace PAPU-0066/conf04_octanol
          hostname                   : cpu10
          calculation namespace      : PAPU-0066/conf04_octanol
          coordinate file            : PAPU-0066/conf04.xyz
          omp threads                :                    16


           -------------------------------------------------
          |                 G F N 2 - x T B                 |
           -------------------------------------------------

        Reference                      10.1021/acs.jctc.8b01176
      * Hamiltonian:
        H0-scaling (s, p, d)           1.850000    2.230000    2.230000
        zeta-weighting                 0.500000
      * Dispersion:
        s8                             2.700000
        a1                             0.520000
        a2                             5.000000
        s9                             5.000000
      * Repulsion:
        kExp                           1.500000    1.000000
        rExp                           1.000000
      * Coulomb:
        alpha                          2.000000
        third order                    shell-resolved
        anisotropic                    true
        a3                             3.000000
        a5                             4.000000
        cn-shift                       1.200000
        cn-exp                         4.000000
        max-rad                        5.000000

      * Solvation model:               ALPB
        Solvent                        octanol
        Parameter file                 internal GFN2-xTB/ALPB
        Dielectric constant                9.8629E+00
        Reference state                gsolv [1 M gas/solution]
        Free energy shift                  2.3397E-03 Eh       1.4682E+00 kcal/mol
        Temperature                        2.9815E+02 K
        Density                            8.3000E-01 kg/L
        Solvent mass                       1.3023E+02 g/mol
        Interaction kernel             P16
        Born radius scaling (c1)           1.5898E+00
        Born radii integrator          GBOBC
        Born offset                        0.0000E+00 a0       0.0000E+00 AA
        H-bond correction              true
        Ion screening                  false
        Surface tension                    1.0000E-05 Eh       1.5569E+01 dyn/cm
        Grid points                               230 per atom

          ...................................................
          :                      SETUP                      :
          :.................................................:
          :  # basis functions                 362          :
          :  # atomic orbitals                 362          :
          :  # shells                          218          :
          :  # electrons                       404          :
          :  max. iterations                   250          :
          :  Hamiltonian                  GFN2-xTB          :
          :  restarted?                      false          :
          :  GBSA solvation                   true          :
          :  PC potential                    false          :
          :  electronic temp.          300.0000000     K    :
          :  accuracy                    1.0000000          :
          :  -> integral cutoff          0.2500000E+02      :
          :  -> integral neglect         0.1000000E-07      :
          :  -> SCF convergence          0.1000000E-05 Eh   :
          :  -> wf. convergence          0.1000000E-03 e    :
          :  Broyden damping             0.4000000          :
          :  net charge                          0          :
          :  unpaired electrons                  0          :
          ...................................................

 iter      E             dE          RMSdq      gap      omega  full diag
   1   -234.5564288 -0.234556E+03  0.430E+00    2.55       0.0  T
   2   -234.7883039 -0.231875E+00  0.235E+00    1.72       1.0  T
   3   -234.7694059  0.188980E-01  0.104E+00    1.78       1.0  T
   4   -234.8083662 -0.389604E-01  0.327E-01    1.57       1.0  T
   5   -234.8159273 -0.756105E-02  0.134E-01    1.53       1.0  T
   6   -234.8169775 -0.105022E-02  0.592E-02    1.56       1.0  T
   7   -234.8170673 -0.898243E-04  0.265E-02    1.57       1.0  T
   8   -234.8170929 -0.255418E-04  0.108E-02    1.56       1.0  T
   9   -234.8170975 -0.459176E-05  0.501E-03    1.57       1.7  T
  10   -234.8170986 -0.111102E-05  0.256E-03    1.57       3.2  T
  11   -234.8170988 -0.257401E-06  0.128E-03    1.57       6.5  T
  12   -234.8170989 -0.331545E-07  0.591E-04    1.57      14.0  T
  13   -234.8170989 -0.188951E-07  0.289E-04    1.57      28.6  T

   *** convergence criteria satisfied after 13 iterations ***

         #    Occupation            Energy/Eh            Energy/eV
      -------------------------------------------------------------
         1        2.0000           -0.7781211             -21.1738
       ...           ...                  ...                  ...
       196        2.0000           -0.4083950             -11.1130
       197        2.0000           -0.4054057             -11.0317
       198        2.0000           -0.4031007             -10.9689
       199        2.0000           -0.4018764             -10.9356
       200        2.0000           -0.4007003             -10.9036
       201        2.0000           -0.3915768             -10.6553
       202        2.0000           -0.3682165             -10.0197 (HOMO)
       203                         -0.3106745              -8.4539 (LUMO)
       204                         -0.3023628              -8.2277
       205                         -0.2566903              -6.9849
       206                         -0.2395626              -6.5188
       207                         -0.2378950              -6.4735
       ...                                ...                  ...
       362                          0.6857383              18.6599
      -------------------------------------------------------------
                  HL-Gap            0.0575419 Eh            1.5658 eV
             Fermi-level           -0.3394455 Eh           -9.2368 eV

 SCC (total)                   0 d,  0 h,  0 min,  0.262 sec
 SCC setup                      ...        0 min,  0.004 sec (  1.340%)
 Dispersion                     ...        0 min,  0.004 sec (  1.518%)
 classical contributions        ...        0 min,  0.000 sec (  0.048%)
 integral evaluation            ...        0 min,  0.011 sec (  4.277%)
 iterations                     ...        0 min,  0.202 sec ( 77.167%)
 molecular gradient             ...        0 min,  0.040 sec ( 15.316%)
 printout                       ...        0 min,  0.001 sec (  0.316%)

         :::::::::::::::::::::::::::::::::::::::::::::::::::::
         ::                     SUMMARY                     ::
         :::::::::::::::::::::::::::::::::::::::::::::::::::::
         :: total energy            -232.356376058109 Eh    ::
         :: total w/o Gsasa/hb      -232.283491307585 Eh    ::
         :: gradient norm              0.128370482439 Eh/a0 ::
         :: HOMO-LUMO gap              1.565795742497 eV    ::
         ::.................................................::
         :: SCC energy              -234.800476468536 Eh    ::
         :: -> isotropic ES            0.528992049977 Eh    ::
         :: -> anisotropic ES         -0.025024892774 Eh    ::
         :: -> anisotropic XC          0.022760059373 Eh    ::
         :: -> dispersion             -0.193619669700 Eh    ::
         :: -> Gsolv                  -0.101756443968 Eh    ::
         ::    -> Gelec               -0.028871693445 Eh    ::
         ::    -> Gsasa               -0.030003253774 Eh    ::
         ::    -> Ghb                 -0.045221166126 Eh    ::
         ::    -> Gshift               0.002339669376 Eh    ::
         :: repulsion energy           2.444100410428 Eh    ::
         :: add. restraining           0.000000000000 Eh    ::
         :: total charge               0.000000000000 e     ::
         :::::::::::::::::::::::::::::::::::::::::::::::::::::

           -------------------------------------------------
          |                Property Printout                |
           -------------------------------------------------

    * Orbital Energies and Occupations

         #    Occupation            Energy/Eh            Energy/eV
      -------------------------------------------------------------
         1        2.0000           -0.7781211             -21.1738
       ...           ...                  ...                  ...
       190        2.0000           -0.4198951             -11.4259
       191        2.0000           -0.4173799             -11.3575
       192        2.0000           -0.4162189             -11.3259
       193        2.0000           -0.4146544             -11.2833
       194        2.0000           -0.4125243             -11.2254
       195        2.0000           -0.4116874             -11.2026
       196        2.0000           -0.4083950             -11.1130
       197        2.0000           -0.4054057             -11.0317
       198        2.0000           -0.4031007             -10.9689
       199        2.0000           -0.4018764             -10.9356
       200        2.0000           -0.4007003             -10.9036
       201        2.0000           -0.3915768             -10.6553
       202        2.0000           -0.3682165             -10.0197 (HOMO)
       203                         -0.3106745              -8.4539 (LUMO)
       204                         -0.3023628              -8.2277
       205                         -0.2566903              -6.9849
       206                         -0.2395626              -6.5188
       207                         -0.2378950              -6.4735
       208                         -0.2316553              -6.3037
       209                         -0.2256483              -6.1402
       210                         -0.1746941              -4.7537
       211                         -0.1670685              -4.5462
       212                         -0.1378774              -3.7518
       213                         -0.1150581              -3.1309
       ...                                ...                  ...
       362                          0.6857383              18.6599
      -------------------------------------------------------------
                  HL-Gap            0.0575419 Eh            1.5658 eV
             Fermi-level           -0.3394455 Eh           -9.2368 eV

     #   Z          covCN         q      C6AA      α(0)
     1   6 C        2.971    -0.047    29.153     8.857
     2   6 C        2.838     0.145    24.844     8.168
     3   6 C        2.923    -0.102    30.572     9.067
     4   6 C        2.838     0.151    24.721     8.148
     5   6 C        2.929    -0.081    30.014     8.985
     6   6 C        2.966    -0.000    28.035     8.685
     7   8 O        1.656    -0.434    21.516     6.262
     8   8 O        1.657    -0.432    21.476     6.256
     9   6 C        3.683     0.064    19.707     6.357
    10   8 O        1.653    -0.483    22.521     6.406
    11   6 C        3.746     0.101    18.987     6.215
    12   6 C        3.721     0.090    19.202     6.258
    13   6 C        3.762     0.105    18.896     6.196
    14   6 C        3.762     0.089    19.153     6.239
    15   6 C        3.743     0.088    19.195     6.250
    16   8 O        1.695    -0.349    19.869     6.018
    17   8 O        1.652    -0.466    22.175     6.357
    18   8 O        1.698    -0.335    19.621     5.980
    19   8 O        1.701    -0.284    18.718     5.841
    20   6 C        3.675     0.070    19.635     6.349
    21   8 O        1.654    -0.475    22.356     6.383
    22   6 C        2.735     0.361    20.879     7.481
    23   6 C        2.896    -0.087    30.183     9.008
    24   6 C        2.902     0.004    27.936     8.666
    25   6 C        2.898    -0.043    29.073     8.841
    26   6 C        2.895    -0.013    28.326     8.726
    27   6 C        3.807    -0.074    21.911     6.663
    28   6 C        3.729     0.122    18.683     6.171
    29   6 C        2.895    -0.074    29.858     8.959
    30   6 C        2.900    -0.033    28.826     8.803
    31   6 C        2.899    -0.057    29.405     8.891
    32   6 C        2.896    -0.033    28.831     8.804
    33   6 C        3.806    -0.062    21.681     6.629
    34   6 C        3.802    -0.063    21.706     6.633
    35   6 C        3.801    -0.061    21.681     6.629
    36   6 C        3.799    -0.056    21.581     6.614
    37   6 C        3.751    -0.109    22.646     6.787
    38   8 O        0.858    -0.494    23.653     6.521
    39   8 O        1.652    -0.499    22.868     6.455
    40   6 C        3.669     0.235    17.168     5.940
    41   8 O        1.695    -0.373    20.320     6.086
    42   6 C        3.748     0.089    19.162     6.243
    43   6 C        3.722     0.069    19.530     6.311
    44   6 C        3.726     0.087    19.239     6.263
    45   6 C        3.741     0.083    19.277     6.264
    46   6 C        3.736     0.062    19.621     6.321
    47   8 O        1.653    -0.461    22.070     6.342
    48   8 O        1.654    -0.471    22.287     6.373
    49   8 O        1.698    -0.338    19.679     5.989
    50   6 C        3.655     0.235    17.206     5.955
    51   6 C        3.721     0.085    19.283     6.272
    52   6 C        3.723     0.093    19.150     6.249
    53   6 C        3.721     0.091    19.181     6.255
    54   6 C        3.763     0.099    18.986     6.211
    55   8 O        1.697    -0.334    19.600     5.977
    56   8 O        1.703    -0.263    18.352     5.784
    57   8 O        1.651    -0.476    22.384     6.387
    58   8 O        1.654    -0.484    22.561     6.412
    59   8 O        1.653    -0.478    22.426     6.393
    60   6 C        3.674     0.068    19.669     6.355
    61   8 O        1.651    -0.465    22.151     6.353
    62   6 C        2.757     0.367    20.781     7.465
    63   6 C        2.894    -0.097    30.440     9.046
    64   8 O        0.858    -0.477    23.282     6.469
    65   6 C        2.899    -0.001    28.057     8.685
    66   6 C        2.896    -0.047    29.175     8.856
    67   6 C        2.892    -0.021    28.537     8.758
    68   6 C        3.804    -0.063    21.705     6.633
    69   6 C        3.801    -0.059    21.631     6.622
    70   6 C        3.801    -0.056    21.586     6.615
    71   6 C        3.799    -0.059    21.632     6.622
    72   6 C        3.751    -0.106    22.596     6.779
    73   1 H        0.926     0.074     2.037     2.232
    74   1 H        0.926     0.074     2.037     2.232
    75   1 H        0.803     0.326     0.649     1.265
    76   1 H        0.804     0.361     0.564     1.180
    77   1 H        0.924     0.039     2.460     2.453
    78   1 H        0.924     0.066     2.130     2.282
    79   1 H        0.803     0.339     0.615     1.232
    80   1 H        0.924     0.028     2.610     2.527
    81   1 H        0.924     0.087     1.911     2.162
    82   1 H        0.924     0.052     2.297     2.370
    83   1 H        0.924     0.079     1.992     2.207
    84   1 H        0.924     0.048     2.349     2.397
    85   1 H        0.802     0.319     0.666     1.283
    86   1 H        0.924     0.067     2.120     2.277
    87   1 H        0.924     0.049     2.339     2.391
    88   1 H        0.803     0.351     0.586     1.202
    89   1 H        0.926     0.087     1.912     2.162
    90   1 H        0.926     0.070     2.089     2.260
    91   1 H        0.926     0.094     1.837     2.119
    92   1 H        0.926     0.059     2.211     2.325
    93   1 H        0.924     0.062     2.179     2.309
    94   1 H        0.924     0.081     1.969     2.194
    95   1 H        0.923     0.025     2.665     2.553
    96   1 H        0.926     0.044     2.391     2.418
    97   1 H        0.926     0.033     2.538     2.491
    98   1 H        0.926     0.041     2.442     2.444
    99   1 H        0.926     0.041     2.432     2.439
   100   1 H        0.924     0.045     2.386     2.416
   101   1 H        0.924     0.049     2.335     2.389
   102   1 H        0.924     0.020     2.730     2.584
   103   1 H        0.924     0.042     2.418     2.432
   104   1 H        0.924     0.032     2.552     2.498
   105   1 H        0.924     0.035     2.516     2.481
   106   1 H        0.924     0.021     2.712     2.576
   107   1 H        0.924     0.033     2.544     2.494
   108   1 H        0.924     0.037     2.483     2.464
   109   1 H        0.924     0.041     2.432     2.439
   110   1 H        0.924     0.033     2.540     2.492
   111   1 H        0.804     0.336     0.622     1.239
   112   1 H        0.924     0.031     2.577     2.511
   113   1 H        0.923     0.055     2.264     2.353
   114   1 H        0.923     0.090     1.883     2.146
   115   1 H        0.923     0.042     2.424     2.435
   116   1 H        0.924     0.075     2.029     2.227
   117   1 H        0.924     0.082     1.961     2.190
   118   1 H        0.924     0.103     1.760     2.075
   119   1 H        0.803     0.339     0.615     1.232
   120   1 H        0.804     0.367     0.550     1.165
   121   1 H        0.924     0.020     2.741     2.589
   122   1 H        0.923     0.070     2.081     2.256
   123   1 H        0.923     0.033     2.546     2.495
   124   1 H        0.923     0.042     2.423     2.434
   125   1 H        0.923     0.041     2.429     2.438
   126   1 H        0.802     0.337     0.619     1.236
   127   1 H        0.804     0.362     0.560     1.176
   128   1 H        0.803     0.363     0.559     1.175
   129   1 H        0.924     0.060     2.200     2.320
   130   1 H        0.924     0.073     2.048     2.238
   131   1 H        0.801     0.319     0.667     1.283
   132   1 H        0.926     0.104     1.750     2.069
   133   1 H        0.926     0.061     2.184     2.311
   134   1 H        0.926     0.064     2.151     2.294
   135   1 H        0.926     0.068     2.109     2.271
   136   1 H        0.924     0.039     2.456     2.451
   137   1 H        0.924     0.053     2.289     2.366
   138   1 H        0.924     0.042     2.429     2.437
   139   1 H        0.924     0.036     2.499     2.472
   140   1 H        0.924     0.034     2.532     2.488
   141   1 H        0.924     0.019     2.744     2.591
   142   1 H        0.924     0.032     2.565     2.504
   143   1 H        0.924     0.040     2.447     2.446
   144   1 H        0.924     0.038     2.472     2.459
   145   1 H        0.924     0.039     2.457     2.451
   146   1 H        0.924     0.031     2.577     2.510

 Mol. C6AA /au·bohr⁶  :     196770.237310
 Mol. C8AA /au·bohr⁸  :    4426301.376019
 Mol. α(0) /au        :        663.845092


Wiberg/Mayer (AO) data.
largest (>0.10) Wiberg bond orders for each atom

 ---------------------------------------------------------------------------
     #   Z sym  total        # sym  WBO       # sym  WBO       # sym  WBO
 ---------------------------------------------------------------------------
     1   6 C    3.972 --     6 C    1.384     2 C    1.341    11 C    0.993
     2   6 C    3.937 --     3 C    1.386     1 C    1.341     7 O    1.061
     3   6 C    3.977 --     2 C    1.386     4 C    1.384    73 H    0.960
     4   6 C    3.945 --     3 C    1.384     5 C    1.355     8 O    1.080
     5   6 C    3.982 --     6 C    1.436     4 C    1.355    74 H    0.963
     6   6 C    3.987 --     5 C    1.436     1 C    1.384     9 C    0.997
     7   8 O    2.080 --     2 C    1.061    75 H    0.847
     8   8 O    2.089 --     4 C    1.080    76 H    0.850
     9   6 C    3.952 --     6 C    0.997    10 O    0.987    77 H    0.965
                            78 H    0.953
    10   8 O    1.942 --     9 C    0.987    79 H    0.868
    11   6 C    3.939 --     1 C    0.993    12 C    0.948    16 O    0.948
                            80 H    0.946
    12   6 C    3.949 --    17 O    1.003    13 C    0.957    81 H    0.950
                            11 C    0.948
    13   6 C    3.926 --    14 C    0.965    12 C    0.957    19 O    0.943
                            82 H    0.934
    14   6 C    3.928 --    13 C    0.965    15 C    0.961    18 O    0.952
                            83 H    0.947
    15   6 C    3.945 --    20 C    0.982    16 O    0.967    14 C    0.961
                            84 H    0.947
    16   8 O    2.067 --    15 C    0.967    11 C    0.948
    17   8 O    1.955 --    12 C    1.003    85 H    0.849
    18   8 O    2.087 --    40 C    0.986    14 C    0.952
    19   8 O    2.281 --    22 C    1.095    13 C    0.943    38 O    0.147
    20   6 C    3.959 --    21 O    1.012    15 C    0.982    86 H    0.967
                            87 H    0.966
    21   8 O    1.930 --    20 C    1.012    88 H    0.857
    22   6 C    3.896 --    38 O    1.606    19 O    1.095    23 C    1.075
    23   6 C    3.976 --    24 C    1.736    22 C    1.075    89 H    0.956
    24   6 C    3.969 --    23 C    1.736    25 C    1.123    90 H    0.954
    25   6 C    3.983 --    26 C    1.822    24 C    1.123    91 H    0.944
    26   6 C    3.976 --    25 C    1.822    27 C    1.036    92 H    0.963
    27   6 C    3.985 --    26 C    1.036    93 H    0.974    94 H    0.953
                            28 C    0.951
    28   6 C    3.952 --    29 C    1.003    39 O    0.977    95 H    0.961
                            27 C    0.951
    29   6 C    3.976 --    30 C    1.829    28 C    1.003    96 H    0.965
                            32 C    0.130
    30   6 C    3.991 --    29 C    1.829    31 C    1.127    97 H    0.958
    31   6 C    3.988 --    32 C    1.823    30 C    1.127    98 H    0.962
    32   6 C    3.981 --    31 C    1.823    33 C    1.034    99 H    0.959
                            29 C    0.130
    33   6 C    3.996 --    32 C    1.034    34 C    1.000   100 H    0.969
                           101 H    0.947
    34   6 C    3.992 --    35 C    1.007    33 C    1.000   102 H    0.972
                           103 H    0.965
    35   6 C    3.996 --    34 C    1.007    36 C    1.007   105 H    0.976
                           104 H    0.976
    36   6 C    3.996 --    37 C    1.020    35 C    1.007   106 H    0.973
                           107 H    0.969
    37   6 C    3.996 --    36 C    1.020   108 H    0.987   109 H    0.987
                           110 H    0.987
    38   8 O    1.980 --    22 C    1.606    19 O    0.147
    39   8 O    1.921 --    28 C    0.977   111 H    0.872
    40   6 C    3.919 --    18 O    0.986    45 C    0.954    41 O    0.944
                           112 H    0.923
    41   8 O    2.048 --    42 C    0.949    40 C    0.944
    42   6 C    3.931 --    46 C    0.978    43 C    0.965    41 O    0.949
                           113 H    0.937
    43   6 C    3.959 --    47 O    1.007    42 C    0.965    44 C    0.957
                           114 H    0.955
    44   6 C    3.964 --    48 O    1.010    45 C    0.958    43 C    0.957
                           115 H    0.954
    45   6 C    3.945 --    49 O    0.976    44 C    0.958    40 C    0.954
                           116 H    0.952
    46   6 C    3.924 --    42 C    0.978    56 O    0.962   118 H    0.961
                           117 H    0.959
    47   8 O    1.958 --    43 C    1.007   119 H    0.864
    48   8 O    1.956 --    44 C    1.010   120 H    0.845
    49   8 O    2.095 --    45 C    0.976    50 C    0.960
    50   6 C    3.923 --    55 O    0.976    49 O    0.960    51 C    0.953
                           121 H    0.943
    51   6 C    3.956 --    57 O    1.002    52 C    0.963   122 H    0.953
                            50 C    0.953
    52   6 C    3.963 --    58 O    0.999    53 C    0.965    51 C    0.963
                           123 H    0.960
    53   6 C    3.968 --    59 O    1.008    54 C    0.967    52 C    0.965
                           124 H    0.959
    54   6 C    3.936 --    60 C    0.988    53 C    0.967   125 H    0.954
                            55 O    0.952
    55   8 O    2.084 --    50 C    0.976    54 C    0.952
    56   8 O    2.285 --    62 C    1.102    46 C    0.962    64 O    0.144
    57   8 O    1.942 --    51 C    1.002   126 H    0.852
    58   8 O    1.930 --    52 C    0.999   127 H    0.850
    59   8 O    1.928 --    53 C    1.008   128 H    0.846
    60   6 C    3.953 --    61 O    0.999    54 C    0.988   129 H    0.967
                           130 H    0.961
    61   8 O    1.943 --    60 C    0.999   131 H    0.864
    62   6 C    3.888 --    64 O    1.650    56 O    1.102    63 C    1.036
    63   6 C    3.971 --    65 C    1.769    62 C    1.036   132 H    0.939
                            67 C    0.124
    64   8 O    1.998 --    62 C    1.650    56 O    0.144
    65   6 C    3.979 --    63 C    1.769    66 C    1.141   133 H    0.951
    66   6 C    3.985 --    67 C    1.801    65 C    1.141   134 H    0.961
    67   6 C    3.978 --    66 C    1.801    68 C    1.034   135 H    0.966
                            63 C    0.124
    68   6 C    3.994 --    67 C    1.034    69 C    0.979   137 H    0.974
                           136 H    0.958
    69   6 C    3.992 --    70 C    1.007    68 C    0.979   138 H    0.976
                           139 H    0.973
    70   6 C    3.996 --    69 C    1.007    71 C    1.006   140 H    0.976
                           141 H    0.969
    71   6 C    3.994 --    72 C    1.021    70 C    1.006   142 H    0.977
                           143 H    0.973
    72   6 C    3.995 --    71 C    1.021   144 H    0.987   145 H    0.986
                           146 H    0.982
    73   1 H    0.994 --     3 C    0.960
    74   1 H    0.994 --     5 C    0.963
    75   1 H    0.893 --     7 O    0.847
    76   1 H    0.869 --     8 O    0.850
    77   1 H    0.998 --     9 C    0.965
    78   1 H    0.995 --     9 C    0.953
    79   1 H    0.885 --    10 O    0.868
    80   1 H    0.999 --    11 C    0.946
    81   1 H    0.992 --    12 C    0.950
    82   1 H    0.997 --    13 C    0.934
    83   1 H    0.993 --    14 C    0.947
    84   1 H    0.997 --    15 C    0.947
    85   1 H    0.898 --    17 O    0.849
    86   1 H    0.995 --    20 C    0.967
    87   1 H    0.998 --    20 C    0.966
    88   1 H    0.877 --    21 O    0.857
    89   1 H    0.992 --    23 C    0.956
    90   1 H    0.994 --    24 C    0.954
    91   1 H    0.990 --    25 C    0.944
    92   1 H    0.996 --    26 C    0.963
    93   1 H    0.996 --    27 C    0.974
    94   1 H    0.991 --    27 C    0.953
    95   1 H    0.997 --    28 C    0.961
    96   1 H    0.998 --    29 C    0.965
    97   1 H    0.999 --    30 C    0.958
    98   1 H    0.998 --    31 C    0.962
    99   1 H    0.998 --    32 C    0.959
   100   1 H    0.998 --    33 C    0.969
   101   1 H    0.990 --    33 C    0.947
   102   1 H    0.999 --    34 C    0.972
   103   1 H    0.998 --    34 C    0.965
   104   1 H    0.999 --    35 C    0.976
   105   1 H    0.999 --    35 C    0.976
   106   1 H    1.000 --    36 C    0.973
   107   1 H    0.999 --    36 C    0.969
   108   1 H    0.999 --    37 C    0.987
   109   1 H    0.998 --    37 C    0.987
   110   1 H    0.999 --    37 C    0.987
   111   1 H    0.887 --    39 O    0.872
   112   1 H    0.999 --    40 C    0.923
   113   1 H    0.997 --    42 C    0.937
   114   1 H    0.992 --    43 C    0.955
   115   1 H    0.998 --    44 C    0.954
   116   1 H    0.994 --    45 C    0.952
   117   1 H    0.993 --    46 C    0.959
   118   1 H    0.988 --    46 C    0.961
   119   1 H    0.885 --    47 O    0.864
   120   1 H    0.865 --    48 O    0.845
   121   1 H    0.999 --    50 C    0.943
   122   1 H    0.995 --    51 C    0.953
   123   1 H    0.999 --    52 C    0.960
   124   1 H    0.998 --    53 C    0.959
   125   1 H    0.998 --    54 C    0.954
   126   1 H    0.886 --    57 O    0.852
   127   1 H    0.868 --    58 O    0.850
   128   1 H    0.868 --    59 O    0.846
   129   1 H    0.996 --    60 C    0.967
   130   1 H    0.995 --    60 C    0.961
   131   1 H    0.898 --    61 O    0.864
   132   1 H    0.989 --    63 C    0.939
   133   1 H    0.996 --    65 C    0.951
   134   1 H    0.995 --    66 C    0.961
   135   1 H    0.994 --    67 C    0.966
   136   1 H    0.998 --    68 C    0.958
   137   1 H    0.996 --    68 C    0.974
   138   1 H    0.998 --    69 C    0.976
   139   1 H    0.999 --    69 C    0.973
   140   1 H    0.999 --    70 C    0.976
   141   1 H    1.000 --    70 C    0.969
   142   1 H    0.998 --    71 C    0.977
   143   1 H    0.998 --    71 C    0.973
   144   1 H    0.998 --    72 C    0.987
   145   1 H    0.998 --    72 C    0.986
   146   1 H    0.999 --    72 C    0.982
 ---------------------------------------------------------------------------

Topologies differ in total number of bonds
Writing topology from bond orders to xtbtopo.mol

molecular dipole:
                 x           y           z       tot (Debye)
 q only:       -1.158       2.573      -1.528
   full:       -1.106       2.951      -0.794       8.260
molecular quadrupole (traceless):
                xx          xy          yy          xz          yz          zz
 q only:       13.938       4.012     -14.220      -1.375      -7.302       0.282
  q+dip:        8.562      12.032     -21.132       0.815      -5.166      12.571
   full:       11.751      12.300     -21.180      -0.474      -6.778       9.428


           -------------------------------------------------
          | TOTAL ENERGY             -232.356376058109 Eh   |
          | GRADIENT NORM               0.128370482439 Eh/α |
          | HOMO-LUMO GAP               1.565795742497 eV   |
           -------------------------------------------------

------------------------------------------------------------------------
 * finished run on 2026/06/19 at 18:52:10.909     
------------------------------------------------------------------------
 total:
 * wall-time:     0 d,  0 h,  0 min,  0.310 sec
 *  cpu-time:     0 d,  0 h,  0 min,  4.759 sec
 * ratio c/w:    15.374 speedup
 SCF:
 * wall-time:     0 d,  0 h,  0 min,  0.263 sec
 *  cpu-time:     0 d,  0 h,  0 min,  4.150 sec
 * ratio c/w:    15.806 speedup

normal termination of xtb
