      -----------------------------------------------------------      
     |                   =====================                   |     
     |                           x T B                           |     
     |                   =====================                   |     
     |                         S. Grimme                         |     
     |          Mulliken Center for Theoretical Chemistry        |     
     |                    University of Bonn                     |     
      -----------------------------------------------------------      

   * xtb version 6.7.1 (edcfbbe) compiled by 'albert@albert-system' on 2024-07-22

   xtb is free software: you can redistribute it and/or modify it under
   the terms of the GNU Lesser General Public License as published by
   the Free Software Foundation, either version 3 of the License, or
   (at your option) any later version.
   
   xtb is distributed in the hope that it will be useful,
   but WITHOUT ANY WARRANTY; without even the implied warranty of
   MERCHANTABILITY or FITNESS FOR A PARTICULAR PURPOSE.  See the
   GNU Lesser General Public License for more details.
   
   Cite this work as:
   * C. Bannwarth, E. Caldeweyher, S. Ehlert, A. Hansen, P. Pracht,
     J. Seibert, S. Spicher, S. Grimme, WIREs Comput. Mol. Sci., 2020, 11,
     e01493. DOI: 10.1002/wcms.1493
   
   for GFN2-xTB:
   * C. Bannwarth, S. Ehlert and S. Grimme., J. Chem. Theory Comput., 2019,
     15, 1652-1671. DOI: 10.1021/acs.jctc.8b01176
   for GFN1-xTB:
   * S. Grimme, C. Bannwarth, P. Shushkov, J. Chem. Theory Comput., 2017,
     13, 1989-2009. DOI: 10.1021/acs.jctc.7b00118
   for GFN0-xTB:
   * P. Pracht, E. Caldeweyher, S. Ehlert, S. Grimme, ChemRxiv, 2019, preprint.
     DOI: 10.26434/chemrxiv.8326202.v1
   for GFN-FF:
   * S. Spicher and S. Grimme, Angew. Chem. Int. Ed., 2020, 59, 15665-15673.
     DOI: 10.1002/anie.202004239
   
   for ALPB and GBSA implicit solvation:
   * S. Ehlert, M. Stahn, S. Spicher, S. Grimme, J. Chem. Theory Comput.,
     2021, 17, 4250-4261. DOI: 10.1021/acs.jctc.1c00471
   
   for ddCOSMO and CPCM-X implicit solvation:
   * M. Stahn, S. Ehlert, S. Grimme, J. Phys. Chem. A,
     2023, XX, XXXX-XXXX. DOI: 10.1021/acs.jpca.3c04382
   
   for DFT-D4:
   * E. Caldeweyher, C. Bannwarth and S. Grimme, J. Chem. Phys., 2017,
     147, 034112. DOI: 10.1063/1.4993215
   * E. Caldeweyher, S. Ehlert, A. Hansen, H. Neugebauer, S. Spicher,
     C. Bannwarth and S. Grimme, J. Chem. Phys., 2019, 150, 154122.
     DOI: 10.1063/1.5090222
   * E. Caldeweyher, J.-M. Mewes, S. Ehlert and S. Grimme, Phys. Chem. Chem. Phys.
     2020, 22, 8499-8512. DOI: 10.1039/D0CP00502A
   
   for sTDA-xTB:
   * S. Grimme and C. Bannwarth, J. Chem. Phys., 2016, 145, 054103.
     DOI: 10.1063/1.4959605
   
   in the mass-spec context:
   * V. Asgeirsson, C. Bauer and S. Grimme, Chem. Sci., 2017, 8, 4879.
     DOI: 10.1039/c7sc00601b
   * J. Koopman and S. Grimme, ACS Omega 2019, 4, 12, 15120-15133.
     DOI: 10.1021/acsomega.9b02011
   
   for metadynamics refer to:
   * S. Grimme, J. Chem. Theory Comput., 2019, 155, 2847-2862
     DOI: 10.1021/acs.jctc.9b00143
   
   for SPH calculations refer to:
   * S. Spicher and S. Grimme, J. Chem. Theory Comput., 2021, 17, 1701-1714
     DOI: 10.1021/acs.jctc.0c01306
   
   for ONIOM refer to:
   * C. Plett, A. Katbashev, S. Ehlert, S. Grimme, M. Bursch,
     Phys. Chem. Chem. Phys., 2023, 25, 17860-17868. DOI: 10.1039/D3CP02178E
   
   for DIPRO refer to:
   * J. Kohn, N. Gildemeister, S. Grimme, D. Fazzi, A. Hansen,
     J. Chem. Phys., 2023, just accepted.
   
   for PTB refer to:
   * S. Grimme, M. Mueller, A. Hansen, J. Chem. Phys., 2023, 158, 124111.
     DOI: 10.1063/5.0137838
   
   with help from (in alphabetical order)
   P. Atkinson, C. Bannwarth, F. Bohle, G. Brandenburg, E. Caldeweyher
   M. Checinski, S. Dohm, S. Ehlert, S. Ehrlich, I. Gerasimov, C. Hölzer
   A. Katbashev, J. Kohn, J. Koopman, C. Lavigne, S. Lehtola, F. März, M. Müller,
   F. Musil, H. Neugebauer, J. Pisarek, C. Plett, P. Pracht, F. Pultar,
   J. Seibert, P. Shushkov, S. Spicher, M. Stahn, M. Steiner, T. Strunk,
   J. Stückrath, T. Rose, and J. Unsleber
   
 * started run on 2026/06/19 at 18:52:08.289     
   ID    Z sym.   atoms
    1    6 C      1-6, 9, 11-15, 20, 22-37, 40, 42-46, 50-54, 60, 62, 63,
                  65-72
    2    8 O      7, 8, 10, 16-19, 21, 38, 39, 41, 47-49, 55-59, 61, 64
    3    1 H      73-146

           -------------------------------------------------
          |                Calculation Setup                |
           -------------------------------------------------

          program call               : xtb PAPU-0066/conf01.xyz --gfn 2 --alpb water --chrg 0 --uhf 0 --namespace PAPU-0066/conf01_water
          hostname                   : cpu10
          calculation namespace      : PAPU-0066/conf01_water
          coordinate file            : PAPU-0066/conf01.xyz
          omp threads                :                    16


           -------------------------------------------------
          |                 G F N 2 - x T B                 |
           -------------------------------------------------

        Reference                      10.1021/acs.jctc.8b01176
      * Hamiltonian:
        H0-scaling (s, p, d)           1.850000    2.230000    2.230000
        zeta-weighting                 0.500000
      * Dispersion:
        s8                             2.700000
        a1                             0.520000
        a2                             5.000000
        s9                             5.000000
      * Repulsion:
        kExp                           1.500000    1.000000
        rExp                           1.000000
      * Coulomb:
        alpha                          2.000000
        third order                    shell-resolved
        anisotropic                    true
        a3                             3.000000
        a5                             4.000000
        cn-shift                       1.200000
        cn-exp                         4.000000
        max-rad                        5.000000

      * Solvation model:               ALPB
        Solvent                        water
        Parameter file                 internal GFN2-xTB/ALPB
        Dielectric constant                8.0200E+01
        Reference state                gsolv [1 M gas/solution]
        Free energy shift                  1.0808E-03 Eh       6.7819E-01 kcal/mol
        Temperature                        2.9815E+02 K
        Density                            1.0000E+00 kg/L
        Solvent mass                       1.8000E+01 g/mol
        Interaction kernel             P16
        Born radius scaling (c1)           1.4744E+00
        Born radii integrator          GBOBC
        Born offset                        0.0000E+00 a0       0.0000E+00 AA
        H-bond correction              true
        Ion screening                  false
        Surface tension                    1.0000E-05 Eh       1.5569E+01 dyn/cm
        Grid points                               230 per atom

          ...................................................
          :                      SETUP                      :
          :.................................................:
          :  # basis functions                 362          :
          :  # atomic orbitals                 362          :
          :  # shells                          218          :
          :  # electrons                       404          :
          :  max. iterations                   250          :
          :  Hamiltonian                  GFN2-xTB          :
          :  restarted?                      false          :
          :  GBSA solvation                   true          :
          :  PC potential                    false          :
          :  electronic temp.          300.0000000     K    :
          :  accuracy                    1.0000000          :
          :  -> integral cutoff          0.2500000E+02      :
          :  -> integral neglect         0.1000000E-07      :
          :  -> SCF convergence          0.1000000E-05 Eh   :
          :  -> wf. convergence          0.1000000E-03 e    :
          :  Broyden damping             0.4000000          :
          :  net charge                          0          :
          :  unpaired electrons                  0          :
          ...................................................

 iter      E             dE          RMSdq      gap      omega  full diag
   1   -234.5325813 -0.234533E+03  0.433E+00    2.64       0.0  T
   2   -234.7652290 -0.232648E+00  0.236E+00    1.96       1.0  T
   3   -234.7444785  0.207505E-01  0.103E+00    1.93       1.0  T
   4   -234.7844655 -0.399870E-01  0.349E-01    1.72       1.0  T
   5   -234.7927164 -0.825081E-02  0.140E-01    1.67       1.0  T
   6   -234.7936725 -0.956188E-03  0.689E-02    1.69       1.0  T
   7   -234.7938062 -0.133646E-03  0.322E-02    1.70       1.0  T
   8   -234.7938482 -0.419569E-04  0.143E-02    1.69       1.0  T
   9   -234.7938556 -0.743223E-05  0.729E-03    1.69       1.1  T
  10   -234.7938574 -0.179763E-05  0.444E-03    1.69       1.9  T
  11   -234.7938583 -0.918845E-06  0.211E-03    1.69       3.9  T
  12   -234.7938584 -0.145038E-06  0.875E-04    1.69       9.5  T
  13   -234.7938585 -0.349078E-07  0.444E-04    1.69      18.6  T

   *** convergence criteria satisfied after 13 iterations ***

         #    Occupation            Energy/Eh            Energy/eV
      -------------------------------------------------------------
         1        2.0000           -0.7706233             -20.9697
       ...           ...                  ...                  ...
       196        2.0000           -0.4048824             -11.0174
       197        2.0000           -0.4007064             -10.9038
       198        2.0000           -0.3976570             -10.8208
       199        2.0000           -0.3973091             -10.8113
       200        2.0000           -0.3960224             -10.7763
       201        2.0000           -0.3863054             -10.5119
       202        2.0000           -0.3667198              -9.9790 (HOMO)
       203                         -0.3045637              -8.2876 (LUMO)
       204                         -0.2933532              -7.9825
       205                         -0.2516174              -6.8469
       206                         -0.2376511              -6.4668
       207                         -0.2322656              -6.3203
       ...                                ...                  ...
       362                          0.6871872              18.6993
      -------------------------------------------------------------
                  HL-Gap            0.0621561 Eh            1.6914 eV
             Fermi-level           -0.3356417 Eh           -9.1333 eV

 SCC (total)                   0 d,  0 h,  0 min,  0.262 sec
 SCC setup                      ...        0 min,  0.004 sec (  1.364%)
 Dispersion                     ...        0 min,  0.004 sec (  1.542%)
 classical contributions        ...        0 min,  0.000 sec (  0.047%)
 integral evaluation            ...        0 min,  0.012 sec (  4.413%)
 iterations                     ...        0 min,  0.201 sec ( 76.648%)
 molecular gradient             ...        0 min,  0.040 sec ( 15.104%)
 printout                       ...        0 min,  0.002 sec (  0.867%)

         :::::::::::::::::::::::::::::::::::::::::::::::::::::
         ::                     SUMMARY                     ::
         :::::::::::::::::::::::::::::::::::::::::::::::::::::
         :: total energy            -232.333865234703 Eh    ::
         :: total w/o Gsasa/hb      -232.299678162159 Eh    ::
         :: gradient norm              0.125673411482 Eh/a0 ::
         :: HOMO-LUMO gap              1.691353046931 eV    ::
         ::.................................................::
         :: SCC energy              -234.777232631707 Eh    ::
         :: -> isotropic ES            0.544568881409 Eh    ::
         :: -> anisotropic ES         -0.026152568118 Eh    ::
         :: -> anisotropic XC          0.023385958779 Eh    ::
         :: -> dispersion             -0.194360671971 Eh    ::
         :: -> Gsolv                  -0.083499158543 Eh    ::
         ::    -> Gelec               -0.049312085998 Eh    ::
         ::    -> Gsasa                0.006581772842 Eh    ::
         ::    -> Ghb                 -0.041849605084 Eh    ::
         ::    -> Gshift               0.001080759698 Eh    ::
         :: repulsion energy           2.443367397004 Eh    ::
         :: add. restraining           0.000000000000 Eh    ::
         :: total charge               0.000000000000 e     ::
         :::::::::::::::::::::::::::::::::::::::::::::::::::::

           -------------------------------------------------
          |                Property Printout                |
           -------------------------------------------------

    * Orbital Energies and Occupations

         #    Occupation            Energy/Eh            Energy/eV
      -------------------------------------------------------------
         1        2.0000           -0.7706233             -20.9697
       ...           ...                  ...                  ...
       190        2.0000           -0.4164458             -11.3321
       191        2.0000           -0.4153251             -11.3016
       192        2.0000           -0.4134490             -11.2505
       193        2.0000           -0.4108340             -11.1794
       194        2.0000           -0.4091338             -11.1331
       195        2.0000           -0.4073186             -11.0837
       196        2.0000           -0.4048824             -11.0174
       197        2.0000           -0.4007064             -10.9038
       198        2.0000           -0.3976570             -10.8208
       199        2.0000           -0.3973091             -10.8113
       200        2.0000           -0.3960224             -10.7763
       201        2.0000           -0.3863054             -10.5119
       202        2.0000           -0.3667198              -9.9790 (HOMO)
       203                         -0.3045637              -8.2876 (LUMO)
       204                         -0.2933532              -7.9825
       205                         -0.2516174              -6.8469
       206                         -0.2376511              -6.4668
       207                         -0.2322656              -6.3203
       208                         -0.2254686              -6.1353
       209                         -0.2196218              -5.9762
       210                         -0.1738540              -4.7308
       211                         -0.1602740              -4.3613
       212                         -0.1363408              -3.7100
       213                         -0.1092434              -2.9727
       ...                                ...                  ...
       362                          0.6871872              18.6993
      -------------------------------------------------------------
                  HL-Gap            0.0621561 Eh            1.6914 eV
             Fermi-level           -0.3356417 Eh           -9.1333 eV

     #   Z          covCN         q      C6AA      α(0)
     1   6 C        2.971    -0.042    29.035     8.839
     2   6 C        2.838     0.142    24.899     8.177
     3   6 C        2.923    -0.084    30.103     8.998
     4   6 C        2.837     0.146    24.818     8.164
     5   6 C        2.928    -0.091    30.281     9.024
     6   6 C        2.966    -0.001    28.050     8.687
     7   8 O        1.656    -0.435    21.545     6.266
     8   8 O        1.657    -0.452    21.879     6.314
     9   6 C        3.683     0.068    19.637     6.345
    10   8 O        1.653    -0.493    22.745     6.438
    11   6 C        3.746     0.102    18.965     6.212
    12   6 C        3.721     0.095    19.122     6.245
    13   6 C        3.763     0.105    18.892     6.196
    14   6 C        3.762     0.092    19.105     6.231
    15   6 C        3.743     0.092    19.129     6.240
    16   8 O        1.695    -0.349    19.879     6.020
    17   8 O        1.652    -0.472    22.295     6.374
    18   8 O        1.698    -0.337    19.654     5.985
    19   8 O        1.701    -0.281    18.669     5.834
    20   6 C        3.675     0.075    19.547     6.335
    21   8 O        1.654    -0.492    22.721     6.435
    22   6 C        2.736     0.361    20.873     7.480
    23   6 C        2.896    -0.078    29.944     8.972
    24   6 C        2.902     0.008    27.831     8.650
    25   6 C        2.897    -0.040    28.985     8.827
    26   6 C        2.895    -0.014    28.353     8.730
    27   6 C        3.807    -0.072    21.870     6.657
    28   6 C        3.729     0.121    18.696     6.173
    29   6 C        2.895    -0.070    29.752     8.943
    30   6 C        2.900    -0.033    28.831     8.804
    31   6 C        2.898    -0.055    29.356     8.884
    32   6 C        2.895    -0.035    28.859     8.808
    33   6 C        3.806    -0.058    21.618     6.619
    34   6 C        3.802    -0.063    21.709     6.633
    35   6 C        3.801    -0.058    21.620     6.620
    36   6 C        3.799    -0.057    21.604     6.618
    37   6 C        3.751    -0.105    22.576     6.776
    38   8 O        0.858    -0.498    23.736     6.532
    39   8 O        1.652    -0.510    23.107     6.489
    40   6 C        3.669     0.242    17.070     5.923
    41   8 O        1.695    -0.372    20.301     6.083
    42   6 C        3.748     0.096    19.050     6.225
    43   6 C        3.722     0.078    19.393     6.289
    44   6 C        3.726     0.095    19.115     6.242
    45   6 C        3.741     0.087    19.212     6.254
    46   6 C        3.736     0.067    19.540     6.308
    47   8 O        1.653    -0.472    22.290     6.373
    48   8 O        1.654    -0.481    22.490     6.402
    49   8 O        1.698    -0.341    19.733     5.998
    50   6 C        3.654     0.235    17.207     5.956
    51   6 C        3.721     0.089    19.208     6.259
    52   6 C        3.723     0.096    19.096     6.240
    53   6 C        3.721     0.094    19.137     6.248
    54   6 C        3.762     0.101    18.957     6.206
    55   8 O        1.697    -0.345    19.806     6.009
    56   8 O        1.703    -0.264    18.372     5.787
    57   8 O        1.651    -0.477    22.401     6.389
    58   8 O        1.654    -0.496    22.812     6.448
    59   8 O        1.653    -0.488    22.645     6.424
    60   6 C        3.674     0.072    19.597     6.344
    61   8 O        1.651    -0.469    22.243     6.367
    62   6 C        2.756     0.365    20.804     7.469
    63   6 C        2.895    -0.089    30.235     9.015
    64   8 O        0.858    -0.476    23.251     6.465
    65   6 C        2.898    -0.002    28.071     8.687
    66   6 C        2.896    -0.046    29.131     8.849
    67   6 C        2.891    -0.023    28.584     8.766
    68   6 C        3.804    -0.060    21.652     6.625
    69   6 C        3.801    -0.057    21.592     6.616
    70   6 C        3.802    -0.060    21.654     6.625
    71   6 C        3.799    -0.057    21.594     6.616
    72   6 C        3.751    -0.102    22.520     6.768
    73   1 H        0.926     0.076     2.021     2.223
    74   1 H        0.926     0.066     2.128     2.281
    75   1 H        0.803     0.328     0.644     1.261
    76   1 H        0.804     0.382     0.520     1.132
    77   1 H        0.924     0.038     2.471     2.459
    78   1 H        0.924     0.064     2.153     2.294
    79   1 H        0.803     0.345     0.600     1.216
    80   1 H        0.924     0.036     2.502     2.474
    81   1 H        0.924     0.081     1.970     2.195
    82   1 H        0.924     0.047     2.352     2.398
    83   1 H        0.924     0.084     1.937     2.176
    84   1 H        0.924     0.049     2.339     2.392
    85   1 H        0.802     0.322     0.660     1.276
    86   1 H        0.924     0.065     2.136     2.286
    87   1 H        0.924     0.047     2.360     2.402
    88   1 H        0.803     0.362     0.560     1.176
    89   1 H        0.926     0.080     1.975     2.198
    90   1 H        0.926     0.070     2.085     2.258
    91   1 H        0.926     0.090     1.882     2.145
    92   1 H        0.926     0.053     2.280     2.361
    93   1 H        0.924     0.061     2.187     2.313
    94   1 H        0.924     0.078     1.996     2.209
    95   1 H        0.923     0.026     2.641     2.541
    96   1 H        0.926     0.042     2.416     2.431
    97   1 H        0.926     0.035     2.522     2.484
    98   1 H        0.926     0.037     2.495     2.470
    99   1 H        0.926     0.039     2.455     2.450
   100   1 H        0.924     0.041     2.442     2.444
   101   1 H        0.924     0.046     2.370     2.407
   102   1 H        0.924     0.025     2.665     2.553
   103   1 H        0.924     0.042     2.422     2.434
   104   1 H        0.924     0.028     2.618     2.530
   105   1 H        0.924     0.030     2.588     2.516
   106   1 H        0.924     0.024     2.666     2.554
   107   1 H        0.924     0.036     2.508     2.477
   108   1 H        0.924     0.035     2.523     2.484
   109   1 H        0.924     0.038     2.476     2.461
   110   1 H        0.924     0.033     2.540     2.492
   111   1 H        0.804     0.348     0.593     1.210
   112   1 H        0.924     0.011     2.878     2.653
   113   1 H        0.923     0.049     2.330     2.387
   114   1 H        0.923     0.086     1.919     2.166
   115   1 H        0.923     0.039     2.459     2.453
   116   1 H        0.924     0.084     1.935     2.175
   117   1 H        0.924     0.082     1.963     2.191
   118   1 H        0.924     0.107     1.726     2.054
   119   1 H        0.803     0.349     0.590     1.207
   120   1 H        0.804     0.377     0.528     1.142
   121   1 H        0.924     0.023     2.688     2.564
   122   1 H        0.923     0.067     2.122     2.278
   123   1 H        0.923     0.035     2.515     2.480
   124   1 H        0.923     0.042     2.418     2.432
   125   1 H        0.923     0.045     2.386     2.416
   126   1 H        0.802     0.339     0.615     1.232
   127   1 H        0.804     0.374     0.536     1.150
   128   1 H        0.803     0.368     0.549     1.164
   129   1 H        0.924     0.061     2.182     2.310
   130   1 H        0.924     0.066     2.127     2.281
   131   1 H        0.801     0.319     0.668     1.284
   132   1 H        0.926     0.104     1.750     2.069
   133   1 H        0.926     0.059     2.214     2.327
   134   1 H        0.926     0.061     2.189     2.313
   135   1 H        0.926     0.065     2.145     2.290
   136   1 H        0.924     0.041     2.433     2.439
   137   1 H        0.924     0.050     2.316     2.380
   138   1 H        0.924     0.036     2.502     2.473
   139   1 H        0.924     0.034     2.536     2.490
   140   1 H        0.924     0.035     2.521     2.483
   141   1 H        0.924     0.024     2.667     2.554
   142   1 H        0.924     0.030     2.592     2.518
   143   1 H        0.924     0.032     2.555     2.500
   144   1 H        0.924     0.038     2.482     2.464
   145   1 H        0.924     0.036     2.502     2.474
   146   1 H        0.924     0.031     2.577     2.510

 Mol. C6AA /au·bohr⁶  :     197002.119927
 Mol. C8AA /au·bohr⁸  :    4429291.414990
 Mol. α(0) /au        :        664.213682


Wiberg/Mayer (AO) data.
largest (>0.10) Wiberg bond orders for each atom

 ---------------------------------------------------------------------------
     #   Z sym  total        # sym  WBO       # sym  WBO       # sym  WBO
 ---------------------------------------------------------------------------
     1   6 C    3.973 --     6 C    1.388     2 C    1.338    11 C    0.993
     2   6 C    3.937 --     3 C    1.390     1 C    1.338     7 O    1.062
     3   6 C    3.980 --     2 C    1.390     4 C    1.382    73 H    0.963
     4   6 C    3.944 --     3 C    1.382     5 C    1.358     8 O    1.078
     5   6 C    3.981 --     6 C    1.431     4 C    1.358    74 H    0.962
     6   6 C    3.987 --     5 C    1.431     1 C    1.388     9 C    0.997
     7   8 O    2.080 --     2 C    1.062    75 H    0.845
     8   8 O    2.073 --     4 C    1.078    76 H    0.836
     9   6 C    3.950 --     6 C    0.997    10 O    0.984    77 H    0.966
                            78 H    0.953
    10   8 O    1.939 --     9 C    0.984    79 H    0.864
    11   6 C    3.939 --     1 C    0.993    16 O    0.948    12 C    0.948
                            80 H    0.945
    12   6 C    3.948 --    17 O    1.000    13 C    0.958    81 H    0.949
                            11 C    0.948
    13   6 C    3.926 --    14 C    0.966    12 C    0.958    19 O    0.942
                            82 H    0.935
    14   6 C    3.928 --    13 C    0.966    15 C    0.961    18 O    0.952
                            83 H    0.946
    15   6 C    3.945 --    20 C    0.982    16 O    0.966    14 C    0.961
                            84 H    0.947
    16   8 O    2.066 --    15 C    0.966    11 C    0.948
    17   8 O    1.954 --    12 C    1.000    85 H    0.848
    18   8 O    2.087 --    40 C    0.985    14 C    0.952
    19   8 O    2.287 --    22 C    1.100    13 C    0.942    38 O    0.149
    20   6 C    3.958 --    21 O    1.010    15 C    0.982    86 H    0.968
                            87 H    0.966
    21   8 O    1.919 --    20 C    1.010    88 H    0.849
    22   6 C    3.896 --    38 O    1.608    19 O    1.100    23 C    1.073
    23   6 C    3.977 --    24 C    1.745    22 C    1.073    89 H    0.954
    24   6 C    3.969 --    23 C    1.745    25 C    1.111    90 H    0.952
    25   6 C    3.984 --    26 C    1.838    24 C    1.111    91 H    0.942
    26   6 C    3.978 --    25 C    1.838    27 C    1.034    92 H    0.963
    27   6 C    3.985 --    26 C    1.034    93 H    0.974    94 H    0.955
                            28 C    0.952
    28   6 C    3.953 --    29 C    1.004    39 O    0.977    95 H    0.960
                            27 C    0.952
    29   6 C    3.977 --    30 C    1.830    28 C    1.004    96 H    0.965
                            32 C    0.130
    30   6 C    3.991 --    29 C    1.830    31 C    1.126    97 H    0.958
    31   6 C    3.989 --    32 C    1.823    30 C    1.126    98 H    0.963
    32   6 C    3.981 --    31 C    1.823    33 C    1.033    99 H    0.959
                            29 C    0.130
    33   6 C    3.997 --    32 C    1.033    34 C    1.000   100 H    0.969
                           101 H    0.948
    34   6 C    3.992 --    35 C    1.007    33 C    1.000   102 H    0.974
                           103 H    0.965
    35   6 C    3.997 --    34 C    1.007    36 C    1.007   105 H    0.977
                           104 H    0.977
    36   6 C    3.995 --    37 C    1.020    35 C    1.007   106 H    0.973
                           107 H    0.968
    37   6 C    3.996 --    36 C    1.020   108 H    0.987   109 H    0.987
                           110 H    0.987
    38   8 O    1.975 --    22 C    1.608    19 O    0.149
    39   8 O    1.913 --    28 C    0.977   111 H    0.864
    40   6 C    3.922 --    18 O    0.985    45 C    0.954    41 O    0.946
                           112 H    0.926
    41   8 O    2.048 --    42 C    0.947    40 C    0.946
    42   6 C    3.930 --    46 C    0.978    43 C    0.965    41 O    0.947
                           113 H    0.937
    43   6 C    3.959 --    47 O    1.007    42 C    0.965    44 C    0.957
                           114 H    0.956
    44   6 C    3.965 --    48 O    1.010    45 C    0.958    43 C    0.957
                           115 H    0.954
    45   6 C    3.942 --    49 O    0.973    44 C    0.958    40 C    0.954
                           116 H    0.950
    46   6 C    3.919 --    42 C    0.978   118 H    0.960   117 H    0.960
                            56 O    0.958
    47   8 O    1.951 --    43 C    1.007   119 H    0.858
    48   8 O    1.949 --    44 C    1.010   120 H    0.837
    49   8 O    2.094 --    45 C    0.973    50 C    0.962
    50   6 C    3.922 --    55 O    0.972    49 O    0.962    51 C    0.953
                           121 H    0.943
    51   6 C    3.957 --    57 O    1.002    52 C    0.963   122 H    0.954
                            50 C    0.953
    52   6 C    3.963 --    58 O    0.999    53 C    0.965    51 C    0.963
                           123 H    0.960
    53   6 C    3.966 --    59 O    1.006    54 C    0.968    52 C    0.965
                           124 H    0.959
    54   6 C    3.935 --    60 C    0.989    53 C    0.968   125 H    0.954
                            55 O    0.951
    55   8 O    2.078 --    50 C    0.972    54 C    0.951
    56   8 O    2.291 --    62 C    1.111    46 C    0.958    64 O    0.147
    57   8 O    1.941 --    51 C    1.002   126 H    0.851
    58   8 O    1.922 --    52 C    0.999   127 H    0.842
    59   8 O    1.922 --    53 C    1.006   128 H    0.843
    60   6 C    3.953 --    61 O    0.997    54 C    0.989   129 H    0.967
                           130 H    0.962
    61   8 O    1.941 --    60 C    0.997   131 H    0.863
    62   6 C    3.889 --    64 O    1.652    56 O    1.111    63 C    1.028
    63   6 C    3.972 --    65 C    1.780    62 C    1.028   132 H    0.937
                            67 C    0.127
    64   8 O    2.000 --    62 C    1.652    56 O    0.147
    65   6 C    3.981 --    63 C    1.780    66 C    1.139   133 H    0.952
    66   6 C    3.986 --    67 C    1.806    65 C    1.139   134 H    0.961
    67   6 C    3.980 --    66 C    1.806    68 C    1.033   135 H    0.967
                            63 C    0.127
    68   6 C    3.995 --    67 C    1.033    69 C    0.982   137 H    0.975
                           136 H    0.959
    69   6 C    3.993 --    70 C    1.006    68 C    0.982   138 H    0.977
                           139 H    0.970
    70   6 C    3.995 --    71 C    1.007    69 C    1.006   140 H    0.976
                           141 H    0.965
    71   6 C    3.995 --    72 C    1.020    70 C    1.007   142 H    0.977
                           143 H    0.972
    72   6 C    3.996 --    71 C    1.020   144 H    0.987   145 H    0.986
                           146 H    0.984
    73   1 H    0.993 --     3 C    0.963
    74   1 H    0.995 --     5 C    0.962
    75   1 H    0.892 --     7 O    0.845
    76   1 H    0.854 --     8 O    0.836
    77   1 H    0.998 --     9 C    0.966
    78   1 H    0.996 --     9 C    0.953
    79   1 H    0.881 --    10 O    0.864
    80   1 H    0.998 --    11 C    0.945
    81   1 H    0.993 --    12 C    0.949
    82   1 H    0.997 --    13 C    0.935
    83   1 H    0.992 --    14 C    0.946
    84   1 H    0.997 --    15 C    0.947
    85   1 H    0.896 --    17 O    0.848
    86   1 H    0.995 --    20 C    0.968
    87   1 H    0.998 --    20 C    0.966
    88   1 H    0.869 --    21 O    0.849
    89   1 H    0.993 --    23 C    0.954
    90   1 H    0.994 --    24 C    0.952
    91   1 H    0.990 --    25 C    0.942
    92   1 H    0.997 --    26 C    0.963
    93   1 H    0.996 --    27 C    0.974
    94   1 H    0.992 --    27 C    0.955
    95   1 H    0.997 --    28 C    0.960
    96   1 H    0.998 --    29 C    0.965
    97   1 H    0.999 --    30 C    0.958
    98   1 H    0.998 --    31 C    0.963
    99   1 H    0.998 --    32 C    0.959
   100   1 H    0.998 --    33 C    0.969
   101   1 H    0.990 --    33 C    0.948
   102   1 H    0.999 --    34 C    0.974
   103   1 H    0.998 --    34 C    0.965
   104   1 H    0.999 --    35 C    0.977
   105   1 H    0.999 --    35 C    0.977
   106   1 H    0.999 --    36 C    0.973
   107   1 H    0.999 --    36 C    0.968
   108   1 H    0.999 --    37 C    0.987
   109   1 H    0.998 --    37 C    0.987
   110   1 H    0.999 --    37 C    0.987
   111   1 H    0.879 --    39 O    0.864
   112   1 H    1.000 --    40 C    0.926
   113   1 H    0.998 --    42 C    0.937
   114   1 H    0.992 --    43 C    0.956
   115   1 H    0.998 --    44 C    0.954
   116   1 H    0.992 --    45 C    0.950
   117   1 H    0.993 --    46 C    0.960
   118   1 H    0.987 --    46 C    0.960
   119   1 H    0.878 --    47 O    0.858
   120   1 H    0.857 --    48 O    0.837
   121   1 H    0.999 --    50 C    0.943
   122   1 H    0.995 --    51 C    0.954
   123   1 H    0.999 --    52 C    0.960
   124   1 H    0.998 --    53 C    0.959
   125   1 H    0.998 --    54 C    0.954
   126   1 H    0.885 --    57 O    0.851
   127   1 H    0.860 --    58 O    0.842
   128   1 H    0.865 --    59 O    0.843
   129   1 H    0.996 --    60 C    0.967
   130   1 H    0.996 --    60 C    0.962
   131   1 H    0.898 --    61 O    0.863
   132   1 H    0.989 --    63 C    0.937
   133   1 H    0.997 --    65 C    0.952
   134   1 H    0.996 --    66 C    0.961
   135   1 H    0.995 --    67 C    0.967
   136   1 H    0.998 --    68 C    0.959
   137   1 H    0.997 --    68 C    0.975
   138   1 H    0.998 --    69 C    0.977
   139   1 H    0.999 --    69 C    0.970
   140   1 H    0.998 --    70 C    0.976
   141   1 H    0.999 --    70 C    0.965
   142   1 H    0.999 --    71 C    0.977
   143   1 H    0.999 --    71 C    0.972
   144   1 H    0.998 --    72 C    0.987
   145   1 H    0.998 --    72 C    0.986
   146   1 H    0.999 --    72 C    0.984
 ---------------------------------------------------------------------------

Topologies differ in total number of bonds
Writing topology from bond orders to xtbtopo.mol

molecular dipole:
                 x           y           z       tot (Debye)
 q only:       -1.399       1.693      -1.434
   full:       -1.416       1.772      -0.999       6.300
molecular quadrupole (traceless):
                xx          xy          yy          xz          yz          zz
 q only:        3.001     -20.552     -12.808     -12.500       1.643       9.807
  q+dip:       -6.456     -18.815     -17.771     -13.407       5.895      24.227
   full:       -3.566     -18.765     -17.735     -14.354       4.530      21.301


           -------------------------------------------------
          | TOTAL ENERGY             -232.333865234703 Eh   |
          | GRADIENT NORM               0.125673411482 Eh/α |
          | HOMO-LUMO GAP               1.691353046931 eV   |
           -------------------------------------------------

------------------------------------------------------------------------
 * finished run on 2026/06/19 at 18:52:08.619     
------------------------------------------------------------------------
 total:
 * wall-time:     0 d,  0 h,  0 min,  0.329 sec
 *  cpu-time:     0 d,  0 h,  0 min,  5.036 sec
 * ratio c/w:    15.311 speedup
 SCF:
 * wall-time:     0 d,  0 h,  0 min,  0.263 sec
 *  cpu-time:     0 d,  0 h,  0 min,  4.163 sec
 * ratio c/w:    15.854 speedup

normal termination of xtb
