      -----------------------------------------------------------      
     |                   =====================                   |     
     |                           x T B                           |     
     |                   =====================                   |     
     |                         S. Grimme                         |     
     |          Mulliken Center for Theoretical Chemistry        |     
     |                    University of Bonn                     |     
      -----------------------------------------------------------      

   * xtb version 6.7.1 (edcfbbe) compiled by 'albert@albert-system' on 2024-07-22

   xtb is free software: you can redistribute it and/or modify it under
   the terms of the GNU Lesser General Public License as published by
   the Free Software Foundation, either version 3 of the License, or
   (at your option) any later version.
   
   xtb is distributed in the hope that it will be useful,
   but WITHOUT ANY WARRANTY; without even the implied warranty of
   MERCHANTABILITY or FITNESS FOR A PARTICULAR PURPOSE.  See the
   GNU Lesser General Public License for more details.
   
   Cite this work as:
   * C. Bannwarth, E. Caldeweyher, S. Ehlert, A. Hansen, P. Pracht,
     J. Seibert, S. Spicher, S. Grimme, WIREs Comput. Mol. Sci., 2020, 11,
     e01493. DOI: 10.1002/wcms.1493
   
   for GFN2-xTB:
   * C. Bannwarth, S. Ehlert and S. Grimme., J. Chem. Theory Comput., 2019,
     15, 1652-1671. DOI: 10.1021/acs.jctc.8b01176
   for GFN1-xTB:
   * S. Grimme, C. Bannwarth, P. Shushkov, J. Chem. Theory Comput., 2017,
     13, 1989-2009. DOI: 10.1021/acs.jctc.7b00118
   for GFN0-xTB:
   * P. Pracht, E. Caldeweyher, S. Ehlert, S. Grimme, ChemRxiv, 2019, preprint.
     DOI: 10.26434/chemrxiv.8326202.v1
   for GFN-FF:
   * S. Spicher and S. Grimme, Angew. Chem. Int. Ed., 2020, 59, 15665-15673.
     DOI: 10.1002/anie.202004239
   
   for ALPB and GBSA implicit solvation:
   * S. Ehlert, M. Stahn, S. Spicher, S. Grimme, J. Chem. Theory Comput.,
     2021, 17, 4250-4261. DOI: 10.1021/acs.jctc.1c00471
   
   for ddCOSMO and CPCM-X implicit solvation:
   * M. Stahn, S. Ehlert, S. Grimme, J. Phys. Chem. A,
     2023, XX, XXXX-XXXX. DOI: 10.1021/acs.jpca.3c04382
   
   for DFT-D4:
   * E. Caldeweyher, C. Bannwarth and S. Grimme, J. Chem. Phys., 2017,
     147, 034112. DOI: 10.1063/1.4993215
   * E. Caldeweyher, S. Ehlert, A. Hansen, H. Neugebauer, S. Spicher,
     C. Bannwarth and S. Grimme, J. Chem. Phys., 2019, 150, 154122.
     DOI: 10.1063/1.5090222
   * E. Caldeweyher, J.-M. Mewes, S. Ehlert and S. Grimme, Phys. Chem. Chem. Phys.
     2020, 22, 8499-8512. DOI: 10.1039/D0CP00502A
   
   for sTDA-xTB:
   * S. Grimme and C. Bannwarth, J. Chem. Phys., 2016, 145, 054103.
     DOI: 10.1063/1.4959605
   
   in the mass-spec context:
   * V. Asgeirsson, C. Bauer and S. Grimme, Chem. Sci., 2017, 8, 4879.
     DOI: 10.1039/c7sc00601b
   * J. Koopman and S. Grimme, ACS Omega 2019, 4, 12, 15120-15133.
     DOI: 10.1021/acsomega.9b02011
   
   for metadynamics refer to:
   * S. Grimme, J. Chem. Theory Comput., 2019, 155, 2847-2862
     DOI: 10.1021/acs.jctc.9b00143
   
   for SPH calculations refer to:
   * S. Spicher and S. Grimme, J. Chem. Theory Comput., 2021, 17, 1701-1714
     DOI: 10.1021/acs.jctc.0c01306
   
   for ONIOM refer to:
   * C. Plett, A. Katbashev, S. Ehlert, S. Grimme, M. Bursch,
     Phys. Chem. Chem. Phys., 2023, 25, 17860-17868. DOI: 10.1039/D3CP02178E
   
   for DIPRO refer to:
   * J. Kohn, N. Gildemeister, S. Grimme, D. Fazzi, A. Hansen,
     J. Chem. Phys., 2023, just accepted.
   
   for PTB refer to:
   * S. Grimme, M. Mueller, A. Hansen, J. Chem. Phys., 2023, 158, 124111.
     DOI: 10.1063/5.0137838
   
   with help from (in alphabetical order)
   P. Atkinson, C. Bannwarth, F. Bohle, G. Brandenburg, E. Caldeweyher
   M. Checinski, S. Dohm, S. Ehlert, S. Ehrlich, I. Gerasimov, C. Hölzer
   A. Katbashev, J. Kohn, J. Koopman, C. Lavigne, S. Lehtola, F. März, M. Müller,
   F. Musil, H. Neugebauer, J. Pisarek, C. Plett, P. Pracht, F. Pultar,
   J. Seibert, P. Shushkov, S. Spicher, M. Stahn, M. Steiner, T. Strunk,
   J. Stückrath, T. Rose, and J. Unsleber
   
 * started run on 2026/06/19 at 18:52:10.276     
   ID    Z sym.   atoms
    1    6 C      1-6, 9, 11-15, 20, 22-37, 40, 42-46, 50-54, 60, 62, 63,
                  65-72
    2    8 O      7, 8, 10, 16-19, 21, 38, 39, 41, 47-49, 55-59, 61, 64
    3    1 H      73-146

           -------------------------------------------------
          |                Calculation Setup                |
           -------------------------------------------------

          program call               : xtb PAPU-0066/conf04.xyz --gfn 2 --alpb water --chrg 0 --uhf 0 --namespace PAPU-0066/conf04_water
          hostname                   : cpu10
          calculation namespace      : PAPU-0066/conf04_water
          coordinate file            : PAPU-0066/conf04.xyz
          omp threads                :                    16


           -------------------------------------------------
          |                 G F N 2 - x T B                 |
           -------------------------------------------------

        Reference                      10.1021/acs.jctc.8b01176
      * Hamiltonian:
        H0-scaling (s, p, d)           1.850000    2.230000    2.230000
        zeta-weighting                 0.500000
      * Dispersion:
        s8                             2.700000
        a1                             0.520000
        a2                             5.000000
        s9                             5.000000
      * Repulsion:
        kExp                           1.500000    1.000000
        rExp                           1.000000
      * Coulomb:
        alpha                          2.000000
        third order                    shell-resolved
        anisotropic                    true
        a3                             3.000000
        a5                             4.000000
        cn-shift                       1.200000
        cn-exp                         4.000000
        max-rad                        5.000000

      * Solvation model:               ALPB
        Solvent                        water
        Parameter file                 internal GFN2-xTB/ALPB
        Dielectric constant                8.0200E+01
        Reference state                gsolv [1 M gas/solution]
        Free energy shift                  1.0808E-03 Eh       6.7819E-01 kcal/mol
        Temperature                        2.9815E+02 K
        Density                            1.0000E+00 kg/L
        Solvent mass                       1.8000E+01 g/mol
        Interaction kernel             P16
        Born radius scaling (c1)           1.4744E+00
        Born radii integrator          GBOBC
        Born offset                        0.0000E+00 a0       0.0000E+00 AA
        H-bond correction              true
        Ion screening                  false
        Surface tension                    1.0000E-05 Eh       1.5569E+01 dyn/cm
        Grid points                               230 per atom

          ...................................................
          :                      SETUP                      :
          :.................................................:
          :  # basis functions                 362          :
          :  # atomic orbitals                 362          :
          :  # shells                          218          :
          :  # electrons                       404          :
          :  max. iterations                   250          :
          :  Hamiltonian                  GFN2-xTB          :
          :  restarted?                      false          :
          :  GBSA solvation                   true          :
          :  PC potential                    false          :
          :  electronic temp.          300.0000000     K    :
          :  accuracy                    1.0000000          :
          :  -> integral cutoff          0.2500000E+02      :
          :  -> integral neglect         0.1000000E-07      :
          :  -> SCF convergence          0.1000000E-05 Eh   :
          :  -> wf. convergence          0.1000000E-03 e    :
          :  Broyden damping             0.4000000          :
          :  net charge                          0          :
          :  unpaired electrons                  0          :
          ...................................................

 iter      E             dE          RMSdq      gap      omega  full diag
   1   -234.5352330 -0.234535E+03  0.432E+00    2.64       0.0  T
   2   -234.7654185 -0.230185E+00  0.236E+00    1.93       1.0  T
   3   -234.7445848  0.208336E-01  0.103E+00    1.88       1.0  T
   4   -234.7844361 -0.398513E-01  0.349E-01    1.68       1.0  T
   5   -234.7926275 -0.819140E-02  0.140E-01    1.64       1.0  T
   6   -234.7935578 -0.930243E-03  0.688E-02    1.66       1.0  T
   7   -234.7936888 -0.131014E-03  0.321E-02    1.66       1.0  T
   8   -234.7937298 -0.410365E-04  0.146E-02    1.66       1.0  T
   9   -234.7937377 -0.786132E-05  0.754E-03    1.66       1.1  T
  10   -234.7937396 -0.197350E-05  0.461E-03    1.66       1.8  T
  11   -234.7937407 -0.102174E-05  0.218E-03    1.66       3.8  T
  12   -234.7937408 -0.160056E-06  0.878E-04    1.66       9.4  T
  13   -234.7937409 -0.340829E-07  0.461E-04    1.66      17.9  T

   *** convergence criteria satisfied after 13 iterations ***

         #    Occupation            Energy/Eh            Energy/eV
      -------------------------------------------------------------
         1        2.0000           -0.7701564             -20.9570
       ...           ...                  ...                  ...
       196        2.0000           -0.4048972             -11.0178
       197        2.0000           -0.4013368             -10.9209
       198        2.0000           -0.3993917             -10.8680
       199        2.0000           -0.3979487             -10.8287
       200        2.0000           -0.3967360             -10.7957
       201        2.0000           -0.3854771             -10.4894
       202        2.0000           -0.3664653              -9.9720 (HOMO)
       203                         -0.3054805              -8.3125 (LUMO)
       204                         -0.2955561              -8.0425
       205                         -0.2501903              -6.8080
       206                         -0.2374197              -6.4605
       207                         -0.2319483              -6.3116
       ...                                ...                  ...
       362                          0.6875902              18.7103
      -------------------------------------------------------------
                  HL-Gap            0.0609848 Eh            1.6595 eV
             Fermi-level           -0.3359729 Eh           -9.1423 eV

 SCC (total)                   0 d,  0 h,  0 min,  0.260 sec
 SCC setup                      ...        0 min,  0.004 sec (  1.487%)
 Dispersion                     ...        0 min,  0.005 sec (  1.834%)
 classical contributions        ...        0 min,  0.000 sec (  0.088%)
 integral evaluation            ...        0 min,  0.012 sec (  4.808%)
 iterations                     ...        0 min,  0.197 sec ( 75.693%)
 molecular gradient             ...        0 min,  0.040 sec ( 15.497%)
 printout                       ...        0 min,  0.001 sec (  0.577%)

         :::::::::::::::::::::::::::::::::::::::::::::::::::::
         ::                     SUMMARY                     ::
         :::::::::::::::::::::::::::::::::::::::::::::::::::::
         :: total energy            -232.333018026705 Eh    ::
         :: total w/o Gsasa/hb      -232.299700573783 Eh    ::
         :: gradient norm              0.127290170009 Eh/a0 ::
         :: HOMO-LUMO gap              1.659481029609 eV    ::
         ::.................................................::
         :: SCC energy              -234.777118437133 Eh    ::
         :: -> isotropic ES            0.543356766027 Eh    ::
         :: -> anisotropic ES         -0.026010075440 Eh    ::
         :: -> anisotropic XC          0.023217908824 Eh    ::
         :: -> dispersion             -0.193913460557 Eh    ::
         :: -> Gsolv                  -0.081758371354 Eh    ::
         ::    -> Gelec               -0.048440918432 Eh    ::
         ::    -> Gsasa                0.006438808740 Eh    ::
         ::    -> Ghb                 -0.040837021360 Eh    ::
         ::    -> Gshift               0.001080759698 Eh    ::
         :: repulsion energy           2.444100410428 Eh    ::
         :: add. restraining           0.000000000000 Eh    ::
         :: total charge               0.000000000000 e     ::
         :::::::::::::::::::::::::::::::::::::::::::::::::::::

           -------------------------------------------------
          |                Property Printout                |
           -------------------------------------------------

    * Orbital Energies and Occupations

         #    Occupation            Energy/Eh            Energy/eV
      -------------------------------------------------------------
         1        2.0000           -0.7701564             -20.9570
       ...           ...                  ...                  ...
       190        2.0000           -0.4162788             -11.3275
       191        2.0000           -0.4150598             -11.2944
       192        2.0000           -0.4136655             -11.2564
       193        2.0000           -0.4115428             -11.1987
       194        2.0000           -0.4093014             -11.1377
       195        2.0000           -0.4073199             -11.0837
       196        2.0000           -0.4048972             -11.0178
       197        2.0000           -0.4013368             -10.9209
       198        2.0000           -0.3993917             -10.8680
       199        2.0000           -0.3979487             -10.8287
       200        2.0000           -0.3967360             -10.7957
       201        2.0000           -0.3854771             -10.4894
       202        2.0000           -0.3664653              -9.9720 (HOMO)
       203                         -0.3054805              -8.3125 (LUMO)
       204                         -0.2955561              -8.0425
       205                         -0.2501903              -6.8080
       206                         -0.2374197              -6.4605
       207                         -0.2319483              -6.3116
       208                         -0.2257081              -6.1418
       209                         -0.2208071              -6.0085
       210                         -0.1693342              -4.6078
       211                         -0.1611427              -4.3849
       212                         -0.1360315              -3.7016
       213                         -0.1089976              -2.9660
       ...                                ...                  ...
       362                          0.6875902              18.7103
      -------------------------------------------------------------
                  HL-Gap            0.0609848 Eh            1.6595 eV
             Fermi-level           -0.3359729 Eh           -9.1423 eV

     #   Z          covCN         q      C6AA      α(0)
     1   6 C        2.971    -0.042    29.046     8.840
     2   6 C        2.838     0.142    24.901     8.178
     3   6 C        2.923    -0.098    30.458     9.050
     4   6 C        2.838     0.146    24.810     8.163
     5   6 C        2.929    -0.077    29.928     8.972
     6   6 C        2.966    -0.000    28.031     8.684
     7   8 O        1.656    -0.436    21.551     6.267
     8   8 O        1.657    -0.449    21.832     6.308
     9   6 C        3.683     0.068    19.638     6.346
    10   8 O        1.653    -0.485    22.573     6.414
    11   6 C        3.746     0.102    18.959     6.211
    12   6 C        3.721     0.094    19.133     6.247
    13   6 C        3.762     0.106    18.877     6.193
    14   6 C        3.762     0.092    19.097     6.230
    15   6 C        3.743     0.092    19.128     6.239
    16   8 O        1.695    -0.350    19.894     6.022
    17   8 O        1.652    -0.468    22.209     6.362
    18   8 O        1.698    -0.338    19.677     5.989
    19   8 O        1.701    -0.286    18.742     5.845
    20   6 C        3.675     0.075    19.542     6.334
    21   8 O        1.654    -0.492    22.724     6.435
    22   6 C        2.735     0.360    20.887     7.483
    23   6 C        2.896    -0.079    29.979     8.977
    24   6 C        2.902     0.009    27.825     8.649
    25   6 C        2.898    -0.039    28.957     8.823
    26   6 C        2.895    -0.011    28.281     8.719
    27   6 C        3.807    -0.072    21.878     6.658
    28   6 C        3.729     0.121    18.694     6.172
    29   6 C        2.895    -0.071    29.767     8.945
    30   6 C        2.900    -0.033    28.821     8.802
    31   6 C        2.899    -0.055    29.356     8.884
    32   6 C        2.896    -0.033    28.827     8.803
    33   6 C        3.806    -0.059    21.623     6.620
    34   6 C        3.802    -0.060    21.655     6.625
    35   6 C        3.801    -0.059    21.633     6.622
    36   6 C        3.799    -0.055    21.571     6.613
    37   6 C        3.751    -0.106    22.581     6.777
    38   8 O        0.858    -0.500    23.792     6.540
    39   8 O        1.652    -0.510    23.115     6.490
    40   6 C        3.669     0.240    17.095     5.928
    41   8 O        1.695    -0.373    20.310     6.085
    42   6 C        3.748     0.097    19.045     6.224
    43   6 C        3.722     0.078    19.389     6.288
    44   6 C        3.726     0.094    19.120     6.243
    45   6 C        3.741     0.087    19.209     6.253
    46   6 C        3.736     0.067    19.535     6.308
    47   8 O        1.653    -0.472    22.290     6.373
    48   8 O        1.654    -0.481    22.494     6.402
    49   8 O        1.698    -0.342    19.738     5.998
    50   6 C        3.655     0.236    17.198     5.954
    51   6 C        3.721     0.089    19.208     6.259
    52   6 C        3.723     0.096    19.097     6.240
    53   6 C        3.721     0.094    19.138     6.248
    54   6 C        3.763     0.101    18.955     6.206
    55   8 O        1.697    -0.346    19.812     6.010
    56   8 O        1.703    -0.267    18.422     5.795
    57   8 O        1.651    -0.476    22.393     6.388
    58   8 O        1.654    -0.496    22.814     6.448
    59   8 O        1.653    -0.488    22.628     6.421
    60   6 C        3.674     0.072    19.601     6.344
    61   8 O        1.651    -0.469    22.244     6.367
    62   6 C        2.757     0.364    20.826     7.473
    63   6 C        2.894    -0.089    30.226     9.014
    64   8 O        0.858    -0.477    23.275     6.468
    65   6 C        2.899    -0.000    28.032     8.681
    66   6 C        2.896    -0.046    29.134     8.850
    67   6 C        2.892    -0.022    28.562     8.762
    68   6 C        3.804    -0.059    21.641     6.623
    69   6 C        3.801    -0.057    21.593     6.616
    70   6 C        3.801    -0.055    21.555     6.610
    71   6 C        3.799    -0.057    21.606     6.618
    72   6 C        3.751    -0.101    22.493     6.764
    73   1 H        0.926     0.073     2.050     2.239
    74   1 H        0.926     0.068     2.104     2.268
    75   1 H        0.803     0.328     0.643     1.260
    76   1 H        0.804     0.380     0.524     1.137
    77   1 H        0.924     0.037     2.485     2.465
    78   1 H        0.924     0.064     2.148     2.292
    79   1 H        0.803     0.336     0.623     1.240
    80   1 H        0.924     0.036     2.501     2.473
    81   1 H        0.924     0.081     1.969     2.194
    82   1 H        0.924     0.047     2.360     2.403
    83   1 H        0.924     0.082     1.957     2.187
    84   1 H        0.924     0.049     2.334     2.389
    85   1 H        0.802     0.321     0.663     1.279
    86   1 H        0.924     0.065     2.139     2.287
    87   1 H        0.924     0.046     2.369     2.407
    88   1 H        0.803     0.363     0.559     1.175
    89   1 H        0.926     0.081     1.967     2.193
    90   1 H        0.926     0.070     2.091     2.261
    91   1 H        0.926     0.090     1.883     2.146
    92   1 H        0.926     0.054     2.268     2.355
    93   1 H        0.924     0.061     2.182     2.310
    94   1 H        0.924     0.080     1.976     2.198
    95   1 H        0.923     0.027     2.635     2.539
    96   1 H        0.926     0.042     2.422     2.433
    97   1 H        0.926     0.035     2.520     2.482
    98   1 H        0.926     0.037     2.493     2.469
    99   1 H        0.926     0.040     2.453     2.449
   100   1 H        0.924     0.041     2.439     2.443
   101   1 H        0.924     0.046     2.368     2.406
   102   1 H        0.924     0.019     2.754     2.595
   103   1 H        0.924     0.042     2.419     2.432
   104   1 H        0.924     0.029     2.600     2.521
   105   1 H        0.924     0.031     2.566     2.505
   106   1 H        0.924     0.023     2.685     2.562
   107   1 H        0.924     0.034     2.532     2.488
   108   1 H        0.924     0.035     2.513     2.479
   109   1 H        0.924     0.039     2.467     2.456
   110   1 H        0.924     0.033     2.538     2.491
   111   1 H        0.804     0.349     0.591     1.208
   112   1 H        0.924     0.014     2.823     2.627
   113   1 H        0.923     0.048     2.346     2.395
   114   1 H        0.923     0.086     1.921     2.168
   115   1 H        0.923     0.041     2.442     2.444
   116   1 H        0.924     0.084     1.943     2.180
   117   1 H        0.924     0.081     1.966     2.193
   118   1 H        0.924     0.106     1.730     2.057
   119   1 H        0.803     0.349     0.591     1.208
   120   1 H        0.804     0.377     0.529     1.142
   121   1 H        0.924     0.023     2.695     2.567
   122   1 H        0.923     0.067     2.124     2.279
   123   1 H        0.923     0.035     2.514     2.479
   124   1 H        0.923     0.043     2.413     2.429
   125   1 H        0.923     0.045     2.384     2.415
   126   1 H        0.802     0.339     0.615     1.232
   127   1 H        0.804     0.374     0.535     1.149
   128   1 H        0.803     0.367     0.550     1.165
   129   1 H        0.924     0.062     2.178     2.308
   130   1 H        0.924     0.066     2.126     2.280
   131   1 H        0.801     0.318     0.670     1.286
   132   1 H        0.926     0.102     1.763     2.076
   133   1 H        0.926     0.058     2.217     2.328
   134   1 H        0.926     0.063     2.168     2.303
   135   1 H        0.926     0.067     2.124     2.279
   136   1 H        0.924     0.038     2.477     2.461
   137   1 H        0.924     0.050     2.322     2.383
   138   1 H        0.924     0.039     2.463     2.454
   139   1 H        0.924     0.036     2.504     2.475
   140   1 H        0.924     0.032     2.561     2.503
   141   1 H        0.924     0.019     2.751     2.594
   142   1 H        0.924     0.031     2.578     2.511
   143   1 H        0.924     0.038     2.481     2.463
   144   1 H        0.924     0.036     2.500     2.472
   145   1 H        0.924     0.038     2.473     2.459
   146   1 H        0.924     0.027     2.628     2.535

 Mol. C6AA /au·bohr⁶  :     197001.076980
 Mol. C8AA /au·bohr⁸  :    4428994.377596
 Mol. α(0) /au        :        664.214516


Wiberg/Mayer (AO) data.
largest (>0.10) Wiberg bond orders for each atom

 ---------------------------------------------------------------------------
     #   Z sym  total        # sym  WBO       # sym  WBO       # sym  WBO
 ---------------------------------------------------------------------------
     1   6 C    3.973 --     6 C    1.385     2 C    1.341    11 C    0.993
     2   6 C    3.937 --     3 C    1.386     1 C    1.341     7 O    1.061
     3   6 C    3.978 --     2 C    1.386     4 C    1.384    73 H    0.961
     4   6 C    3.945 --     3 C    1.384     5 C    1.355     8 O    1.079
     5   6 C    3.983 --     6 C    1.436     4 C    1.355    74 H    0.964
     6   6 C    3.988 --     5 C    1.436     1 C    1.385     9 C    0.997
     7   8 O    2.079 --     2 C    1.061    75 H    0.846
     8   8 O    2.075 --     4 C    1.079    76 H    0.837
     9   6 C    3.950 --     6 C    0.997    10 O    0.985    77 H    0.965
                            78 H    0.953
    10   8 O    1.941 --     9 C    0.985    79 H    0.870
    11   6 C    3.939 --     1 C    0.993    12 C    0.948    16 O    0.947
                            80 H    0.946
    12   6 C    3.950 --    17 O    1.003    13 C    0.957    81 H    0.951
                            11 C    0.948
    13   6 C    3.925 --    14 C    0.965    12 C    0.957    19 O    0.941
                            82 H    0.935
    14   6 C    3.928 --    13 C    0.965    15 C    0.961    18 O    0.952
                            83 H    0.947
    15   6 C    3.945 --    20 C    0.982    16 O    0.966    14 C    0.961
                            84 H    0.947
    16   8 O    2.066 --    15 C    0.966    11 C    0.947
    17   8 O    1.954 --    12 C    1.003    85 H    0.848
    18   8 O    2.086 --    40 C    0.984    14 C    0.952
    19   8 O    2.282 --    22 C    1.097    13 C    0.941    38 O    0.147
    20   6 C    3.958 --    21 O    1.010    15 C    0.982    86 H    0.968
                            87 H    0.966
    21   8 O    1.919 --    20 C    1.010    88 H    0.849
    22   6 C    3.895 --    38 O    1.602    19 O    1.097    23 C    1.076
    23   6 C    3.977 --    24 C    1.736    22 C    1.076    89 H    0.956
    24   6 C    3.969 --    23 C    1.736    25 C    1.123    90 H    0.954
    25   6 C    3.984 --    26 C    1.823    24 C    1.123    91 H    0.945
    26   6 C    3.977 --    25 C    1.823    27 C    1.036    92 H    0.963
    27   6 C    3.985 --    26 C    1.036    93 H    0.974    94 H    0.953
                            28 C    0.951
    28   6 C    3.952 --    29 C    1.004    39 O    0.977    95 H    0.960
                            27 C    0.951
    29   6 C    3.976 --    30 C    1.830    28 C    1.004    96 H    0.965
                            32 C    0.130
    30   6 C    3.991 --    29 C    1.830    31 C    1.126    97 H    0.958
    31   6 C    3.989 --    32 C    1.824    30 C    1.126    98 H    0.963
    32   6 C    3.981 --    31 C    1.824    33 C    1.033    99 H    0.959
                            29 C    0.130
    33   6 C    3.997 --    32 C    1.033    34 C    1.000   100 H    0.969
                           101 H    0.948
    34   6 C    3.992 --    35 C    1.007    33 C    1.000   102 H    0.972
                           103 H    0.965
    35   6 C    3.996 --    34 C    1.007    36 C    1.007   105 H    0.977
                           104 H    0.977
    36   6 C    3.996 --    37 C    1.020    35 C    1.007   106 H    0.973
                           107 H    0.969
    37   6 C    3.996 --    36 C    1.020   108 H    0.987   109 H    0.987
                           110 H    0.987
    38   8 O    1.974 --    22 C    1.602    19 O    0.147
    39   8 O    1.913 --    28 C    0.977   111 H    0.863
    40   6 C    3.921 --    18 O    0.984    45 C    0.954    41 O    0.946
                           112 H    0.924
    41   8 O    2.048 --    42 C    0.948    40 C    0.946
    42   6 C    3.930 --    46 C    0.978    43 C    0.965    41 O    0.948
                           113 H    0.938
    43   6 C    3.959 --    47 O    1.007    42 C    0.965    44 C    0.957
                           114 H    0.956
    44   6 C    3.964 --    48 O    1.010    45 C    0.958    43 C    0.957
                           115 H    0.954
    45   6 C    3.942 --    49 O    0.973    44 C    0.958    40 C    0.954
                           116 H    0.950
    46   6 C    3.920 --    42 C    0.978   118 H    0.961   117 H    0.960
                            56 O    0.959
    47   8 O    1.951 --    43 C    1.007   119 H    0.858
    48   8 O    1.949 --    44 C    1.010   120 H    0.837
    49   8 O    2.094 --    45 C    0.973    50 C    0.962
    50   6 C    3.922 --    55 O    0.972    49 O    0.962    51 C    0.953
                           121 H    0.943
    51   6 C    3.957 --    57 O    1.002    52 C    0.963   122 H    0.954
                            50 C    0.953
    52   6 C    3.963 --    58 O    0.999    53 C    0.965    51 C    0.963
                           123 H    0.960
    53   6 C    3.966 --    59 O    1.006    54 C    0.968    52 C    0.965
                           124 H    0.959
    54   6 C    3.935 --    60 C    0.989    53 C    0.968   125 H    0.954
                            55 O    0.951
    55   8 O    2.078 --    50 C    0.972    54 C    0.951
    56   8 O    2.284 --    62 C    1.105    46 C    0.959    64 O    0.145
    57   8 O    1.941 --    51 C    1.002   126 H    0.851
    58   8 O    1.922 --    52 C    0.999   127 H    0.842
    59   8 O    1.923 --    53 C    1.006   128 H    0.843
    60   6 C    3.952 --    61 O    0.997    54 C    0.989   129 H    0.967
                           130 H    0.962
    61   8 O    1.941 --    60 C    0.997   131 H    0.864
    62   6 C    3.889 --    64 O    1.650    56 O    1.105    63 C    1.034
    63   6 C    3.972 --    65 C    1.772    62 C    1.034   132 H    0.940
                            67 C    0.124
    64   8 O    1.998 --    62 C    1.650    56 O    0.145
    65   6 C    3.980 --    63 C    1.772    66 C    1.140   133 H    0.952
    66   6 C    3.986 --    67 C    1.804    65 C    1.140   134 H    0.961
    67   6 C    3.978 --    66 C    1.804    68 C    1.034   135 H    0.966
                            63 C    0.124
    68   6 C    3.995 --    67 C    1.034    69 C    0.980   137 H    0.975
                           136 H    0.958
    69   6 C    3.993 --    70 C    1.007    68 C    0.980   138 H    0.977
                           139 H    0.973
    70   6 C    3.996 --    69 C    1.007    71 C    1.006   140 H    0.976
                           141 H    0.969
    71   6 C    3.995 --    72 C    1.021    70 C    1.006   142 H    0.977
                           143 H    0.973
    72   6 C    3.996 --    71 C    1.021   144 H    0.987   145 H    0.986
                           146 H    0.982
    73   1 H    0.994 --     3 C    0.961
    74   1 H    0.995 --     5 C    0.964
    75   1 H    0.892 --     7 O    0.846
    76   1 H    0.855 --     8 O    0.837
    77   1 H    0.998 --     9 C    0.965
    78   1 H    0.996 --     9 C    0.953
    79   1 H    0.887 --    10 O    0.870
    80   1 H    0.998 --    11 C    0.946
    81   1 H    0.993 --    12 C    0.951
    82   1 H    0.998 --    13 C    0.935
    83   1 H    0.993 --    14 C    0.947
    84   1 H    0.997 --    15 C    0.947
    85   1 H    0.897 --    17 O    0.848
    86   1 H    0.995 --    20 C    0.968
    87   1 H    0.998 --    20 C    0.966
    88   1 H    0.868 --    21 O    0.849
    89   1 H    0.993 --    23 C    0.956
    90   1 H    0.994 --    24 C    0.954
    91   1 H    0.991 --    25 C    0.945
    92   1 H    0.997 --    26 C    0.963
    93   1 H    0.996 --    27 C    0.974
    94   1 H    0.991 --    27 C    0.953
    95   1 H    0.997 --    28 C    0.960
    96   1 H    0.998 --    29 C    0.965
    97   1 H    0.999 --    30 C    0.958
    98   1 H    0.998 --    31 C    0.963
    99   1 H    0.998 --    32 C    0.959
   100   1 H    0.998 --    33 C    0.969
   101   1 H    0.990 --    33 C    0.948
   102   1 H    1.000 --    34 C    0.972
   103   1 H    0.998 --    34 C    0.965
   104   1 H    0.999 --    35 C    0.977
   105   1 H    0.999 --    35 C    0.977
   106   1 H    0.999 --    36 C    0.973
   107   1 H    0.999 --    36 C    0.969
   108   1 H    0.999 --    37 C    0.987
   109   1 H    0.998 --    37 C    0.987
   110   1 H    0.998 --    37 C    0.987
   111   1 H    0.878 --    39 O    0.863
   112   1 H    1.000 --    40 C    0.924
   113   1 H    0.998 --    42 C    0.938
   114   1 H    0.992 --    43 C    0.956
   115   1 H    0.998 --    44 C    0.954
   116   1 H    0.992 --    45 C    0.950
   117   1 H    0.993 --    46 C    0.960
   118   1 H    0.987 --    46 C    0.961
   119   1 H    0.878 --    47 O    0.858
   120   1 H    0.858 --    48 O    0.837
   121   1 H    0.999 --    50 C    0.943
   122   1 H    0.995 --    51 C    0.954
   123   1 H    0.999 --    52 C    0.960
   124   1 H    0.998 --    53 C    0.959
   125   1 H    0.998 --    54 C    0.954
   126   1 H    0.885 --    57 O    0.851
   127   1 H    0.860 --    58 O    0.842
   128   1 H    0.865 --    59 O    0.843
   129   1 H    0.996 --    60 C    0.967
   130   1 H    0.995 --    60 C    0.962
   131   1 H    0.899 --    61 O    0.864
   132   1 H    0.989 --    63 C    0.940
   133   1 H    0.997 --    65 C    0.952
   134   1 H    0.995 --    66 C    0.961
   135   1 H    0.994 --    67 C    0.966
   136   1 H    0.998 --    68 C    0.958
   137   1 H    0.996 --    68 C    0.975
   138   1 H    0.998 --    69 C    0.977
   139   1 H    0.999 --    69 C    0.973
   140   1 H    0.999 --    70 C    0.976
   141   1 H    1.000 --    70 C    0.969
   142   1 H    0.998 --    71 C    0.977
   143   1 H    0.999 --    71 C    0.973
   144   1 H    0.999 --    72 C    0.987
   145   1 H    0.998 --    72 C    0.986
   146   1 H    0.999 --    72 C    0.982
 ---------------------------------------------------------------------------

Topologies differ in total number of bonds
Writing topology from bond orders to xtbtopo.mol

molecular dipole:
                 x           y           z       tot (Debye)
 q only:       -1.205       2.771      -1.084
   full:       -1.135       3.075      -0.495       8.425
molecular quadrupole (traceless):
                xx          xy          yy          xz          yz          zz
 q only:       16.473       4.679     -17.389      -1.387      -7.913       0.916
  q+dip:       10.205      12.512     -23.226       0.954      -5.385      13.021
   full:       13.382      12.781     -23.277      -0.337      -7.007       9.895


           -------------------------------------------------
          | TOTAL ENERGY             -232.333018026705 Eh   |
          | GRADIENT NORM               0.127290170009 Eh/α |
          | HOMO-LUMO GAP               1.659481029609 eV   |
           -------------------------------------------------

------------------------------------------------------------------------
 * finished run on 2026/06/19 at 18:52:10.587     
------------------------------------------------------------------------
 total:
 * wall-time:     0 d,  0 h,  0 min,  0.310 sec
 *  cpu-time:     0 d,  0 h,  0 min,  4.619 sec
 * ratio c/w:    14.909 speedup
 SCF:
 * wall-time:     0 d,  0 h,  0 min,  0.261 sec
 *  cpu-time:     0 d,  0 h,  0 min,  4.035 sec
 * ratio c/w:    15.484 speedup

normal termination of xtb
