      -----------------------------------------------------------      
     |                   =====================                   |     
     |                           x T B                           |     
     |                   =====================                   |     
     |                         S. Grimme                         |     
     |          Mulliken Center for Theoretical Chemistry        |     
     |                    University of Bonn                     |     
      -----------------------------------------------------------      

   * xtb version 6.7.1 (edcfbbe) compiled by 'albert@albert-system' on 2024-07-22

   xtb is free software: you can redistribute it and/or modify it under
   the terms of the GNU Lesser General Public License as published by
   the Free Software Foundation, either version 3 of the License, or
   (at your option) any later version.
   
   xtb is distributed in the hope that it will be useful,
   but WITHOUT ANY WARRANTY; without even the implied warranty of
   MERCHANTABILITY or FITNESS FOR A PARTICULAR PURPOSE.  See the
   GNU Lesser General Public License for more details.
   
   Cite this work as:
   * C. Bannwarth, E. Caldeweyher, S. Ehlert, A. Hansen, P. Pracht,
     J. Seibert, S. Spicher, S. Grimme, WIREs Comput. Mol. Sci., 2020, 11,
     e01493. DOI: 10.1002/wcms.1493
   
   for GFN2-xTB:
   * C. Bannwarth, S. Ehlert and S. Grimme., J. Chem. Theory Comput., 2019,
     15, 1652-1671. DOI: 10.1021/acs.jctc.8b01176
   for GFN1-xTB:
   * S. Grimme, C. Bannwarth, P. Shushkov, J. Chem. Theory Comput., 2017,
     13, 1989-2009. DOI: 10.1021/acs.jctc.7b00118
   for GFN0-xTB:
   * P. Pracht, E. Caldeweyher, S. Ehlert, S. Grimme, ChemRxiv, 2019, preprint.
     DOI: 10.26434/chemrxiv.8326202.v1
   for GFN-FF:
   * S. Spicher and S. Grimme, Angew. Chem. Int. Ed., 2020, 59, 15665-15673.
     DOI: 10.1002/anie.202004239
   
   for ALPB and GBSA implicit solvation:
   * S. Ehlert, M. Stahn, S. Spicher, S. Grimme, J. Chem. Theory Comput.,
     2021, 17, 4250-4261. DOI: 10.1021/acs.jctc.1c00471
   
   for ddCOSMO and CPCM-X implicit solvation:
   * M. Stahn, S. Ehlert, S. Grimme, J. Phys. Chem. A,
     2023, XX, XXXX-XXXX. DOI: 10.1021/acs.jpca.3c04382
   
   for DFT-D4:
   * E. Caldeweyher, C. Bannwarth and S. Grimme, J. Chem. Phys., 2017,
     147, 034112. DOI: 10.1063/1.4993215
   * E. Caldeweyher, S. Ehlert, A. Hansen, H. Neugebauer, S. Spicher,
     C. Bannwarth and S. Grimme, J. Chem. Phys., 2019, 150, 154122.
     DOI: 10.1063/1.5090222
   * E. Caldeweyher, J.-M. Mewes, S. Ehlert and S. Grimme, Phys. Chem. Chem. Phys.
     2020, 22, 8499-8512. DOI: 10.1039/D0CP00502A
   
   for sTDA-xTB:
   * S. Grimme and C. Bannwarth, J. Chem. Phys., 2016, 145, 054103.
     DOI: 10.1063/1.4959605
   
   in the mass-spec context:
   * V. Asgeirsson, C. Bauer and S. Grimme, Chem. Sci., 2017, 8, 4879.
     DOI: 10.1039/c7sc00601b
   * J. Koopman and S. Grimme, ACS Omega 2019, 4, 12, 15120-15133.
     DOI: 10.1021/acsomega.9b02011
   
   for metadynamics refer to:
   * S. Grimme, J. Chem. Theory Comput., 2019, 155, 2847-2862
     DOI: 10.1021/acs.jctc.9b00143
   
   for SPH calculations refer to:
   * S. Spicher and S. Grimme, J. Chem. Theory Comput., 2021, 17, 1701-1714
     DOI: 10.1021/acs.jctc.0c01306
   
   for ONIOM refer to:
   * C. Plett, A. Katbashev, S. Ehlert, S. Grimme, M. Bursch,
     Phys. Chem. Chem. Phys., 2023, 25, 17860-17868. DOI: 10.1039/D3CP02178E
   
   for DIPRO refer to:
   * J. Kohn, N. Gildemeister, S. Grimme, D. Fazzi, A. Hansen,
     J. Chem. Phys., 2023, just accepted.
   
   for PTB refer to:
   * S. Grimme, M. Mueller, A. Hansen, J. Chem. Phys., 2023, 158, 124111.
     DOI: 10.1063/5.0137838
   
   with help from (in alphabetical order)
   P. Atkinson, C. Bannwarth, F. Bohle, G. Brandenburg, E. Caldeweyher
   M. Checinski, S. Dohm, S. Ehlert, S. Ehrlich, I. Gerasimov, C. Hölzer
   A. Katbashev, J. Kohn, J. Koopman, C. Lavigne, S. Lehtola, F. März, M. Müller,
   F. Musil, H. Neugebauer, J. Pisarek, C. Plett, P. Pracht, F. Pultar,
   J. Seibert, P. Shushkov, S. Spicher, M. Stahn, M. Steiner, T. Strunk,
   J. Stückrath, T. Rose, and J. Unsleber
   
 * started run on 2026/06/19 at 18:52:08.632     
   ID    Z sym.   atoms
    1    6 C      1-6, 9, 11-15, 20, 22-37, 40, 42-46, 50-54, 60, 62, 63,
                  65-72
    2    8 O      7, 8, 10, 16-19, 21, 38, 39, 41, 47-49, 55-59, 61, 64
    3    1 H      73-146

           -------------------------------------------------
          |                Calculation Setup                |
           -------------------------------------------------

          program call               : xtb PAPU-0066/conf01.xyz --gfn 2 --alpb octanol --chrg 0 --uhf 0 --namespace PAPU-0066/conf01_octanol
          hostname                   : cpu10
          calculation namespace      : PAPU-0066/conf01_octanol
          coordinate file            : PAPU-0066/conf01.xyz
          omp threads                :                    16


           -------------------------------------------------
          |                 G F N 2 - x T B                 |
           -------------------------------------------------

        Reference                      10.1021/acs.jctc.8b01176
      * Hamiltonian:
        H0-scaling (s, p, d)           1.850000    2.230000    2.230000
        zeta-weighting                 0.500000
      * Dispersion:
        s8                             2.700000
        a1                             0.520000
        a2                             5.000000
        s9                             5.000000
      * Repulsion:
        kExp                           1.500000    1.000000
        rExp                           1.000000
      * Coulomb:
        alpha                          2.000000
        third order                    shell-resolved
        anisotropic                    true
        a3                             3.000000
        a5                             4.000000
        cn-shift                       1.200000
        cn-exp                         4.000000
        max-rad                        5.000000

      * Solvation model:               ALPB
        Solvent                        octanol
        Parameter file                 internal GFN2-xTB/ALPB
        Dielectric constant                9.8629E+00
        Reference state                gsolv [1 M gas/solution]
        Free energy shift                  2.3397E-03 Eh       1.4682E+00 kcal/mol
        Temperature                        2.9815E+02 K
        Density                            8.3000E-01 kg/L
        Solvent mass                       1.3023E+02 g/mol
        Interaction kernel             P16
        Born radius scaling (c1)           1.5898E+00
        Born radii integrator          GBOBC
        Born offset                        0.0000E+00 a0       0.0000E+00 AA
        H-bond correction              true
        Ion screening                  false
        Surface tension                    1.0000E-05 Eh       1.5569E+01 dyn/cm
        Grid points                               230 per atom

          ...................................................
          :                      SETUP                      :
          :.................................................:
          :  # basis functions                 362          :
          :  # atomic orbitals                 362          :
          :  # shells                          218          :
          :  # electrons                       404          :
          :  max. iterations                   250          :
          :  Hamiltonian                  GFN2-xTB          :
          :  restarted?                      false          :
          :  GBSA solvation                   true          :
          :  PC potential                    false          :
          :  electronic temp.          300.0000000     K    :
          :  accuracy                    1.0000000          :
          :  -> integral cutoff          0.2500000E+02      :
          :  -> integral neglect         0.1000000E-07      :
          :  -> SCF convergence          0.1000000E-05 Eh   :
          :  -> wf. convergence          0.1000000E-03 e    :
          :  Broyden damping             0.4000000          :
          :  net charge                          0          :
          :  unpaired electrons                  0          :
          ...................................................

 iter      E             dE          RMSdq      gap      omega  full diag
   1   -234.5537109 -0.234554E+03  0.430E+00    2.56       0.0  T
   2   -234.7876175 -0.233907E+00  0.235E+00    1.75       1.0  T
   3   -234.7688849  0.187326E-01  0.104E+00    1.82       1.0  T
   4   -234.8078519 -0.389670E-01  0.327E-01    1.61       1.0  T
   5   -234.8154970 -0.764511E-02  0.134E-01    1.56       1.0  T
   6   -234.8165585 -0.106154E-02  0.597E-02    1.59       1.0  T
   7   -234.8166536 -0.950308E-04  0.269E-02    1.60       1.0  T
   8   -234.8166802 -0.266668E-04  0.106E-02    1.60       1.0  T
   9   -234.8166846 -0.432232E-05  0.486E-03    1.60       1.7  T
  10   -234.8166855 -0.976705E-06  0.253E-03    1.60       3.3  T
  11   -234.8166858 -0.252165E-06  0.124E-03    1.60       6.7  T
  12   -234.8166858 -0.311507E-07  0.577E-04    1.60      14.4  T
  13   -234.8166858 -0.181003E-07  0.279E-04    1.60      29.6  T

   *** convergence criteria satisfied after 13 iterations ***

         #    Occupation            Energy/Eh            Energy/eV
      -------------------------------------------------------------
         1        2.0000           -0.7784627             -21.1830
       ...           ...                  ...                  ...
       196        2.0000           -0.4081772             -11.1071
       197        2.0000           -0.4034357             -10.9780
       198        2.0000           -0.4018533             -10.9350
       199        2.0000           -0.4011720             -10.9164
       200        2.0000           -0.4004592             -10.8970
       201        2.0000           -0.3925837             -10.6827
       202        2.0000           -0.3685094             -10.0277 (HOMO)
       203                         -0.3097848              -8.4297 (LUMO)
       204                         -0.2999495              -8.1620
       205                         -0.2578278              -7.0159
       206                         -0.2397712              -6.5245
       207                         -0.2382378              -6.4828
       ...                                ...                  ...
       362                          0.6853032              18.6480
      -------------------------------------------------------------
                  HL-Gap            0.0587246 Eh            1.5980 eV
             Fermi-level           -0.3391471 Eh           -9.2287 eV

 SCC (total)                   0 d,  0 h,  0 min,  0.262 sec
 SCC setup                      ...        0 min,  0.004 sec (  1.497%)
 Dispersion                     ...        0 min,  0.005 sec (  1.762%)
 classical contributions        ...        0 min,  0.000 sec (  0.087%)
 integral evaluation            ...        0 min,  0.014 sec (  5.372%)
 iterations                     ...        0 min,  0.198 sec ( 75.415%)
 molecular gradient             ...        0 min,  0.039 sec ( 14.996%)
 printout                       ...        0 min,  0.002 sec (  0.856%)

         :::::::::::::::::::::::::::::::::::::::::::::::::::::
         ::                     SUMMARY                     ::
         :::::::::::::::::::::::::::::::::::::::::::::::::::::
         :: total energy            -232.356692595990 Eh    ::
         :: total w/o Gsasa/hb      -232.283300680203 Eh    ::
         :: gradient norm              0.126576131074 Eh/a0 ::
         :: HOMO-LUMO gap              1.597978552698 eV    ::
         ::.................................................::
         :: SCC energy              -234.800059992994 Eh    ::
         :: -> isotropic ES            0.529479944220 Eh    ::
         :: -> anisotropic ES         -0.025068586486 Eh    ::
         :: -> anisotropic XC          0.022930445988 Eh    ::
         :: -> dispersion             -0.194078273230 Eh    ::
         :: -> Gsolv                  -0.102636590652 Eh    ::
         ::    -> Gelec               -0.029244674865 Eh    ::
         ::    -> Gsasa               -0.029751793579 Eh    ::
         ::    -> Ghb                 -0.045979791584 Eh    ::
         ::    -> Gshift               0.002339669376 Eh    ::
         :: repulsion energy           2.443367397004 Eh    ::
         :: add. restraining           0.000000000000 Eh    ::
         :: total charge              -0.000000000000 e     ::
         :::::::::::::::::::::::::::::::::::::::::::::::::::::

           -------------------------------------------------
          |                Property Printout                |
           -------------------------------------------------

    * Orbital Energies and Occupations

         #    Occupation            Energy/Eh            Energy/eV
      -------------------------------------------------------------
         1        2.0000           -0.7784627             -21.1830
       ...           ...                  ...                  ...
       190        2.0000           -0.4199939             -11.4286
       191        2.0000           -0.4174404             -11.3591
       192        2.0000           -0.4170026             -11.3472
       193        2.0000           -0.4151062             -11.2956
       194        2.0000           -0.4126672             -11.2292
       195        2.0000           -0.4114658             -11.1966
       196        2.0000           -0.4081772             -11.1071
       197        2.0000           -0.4034357             -10.9780
       198        2.0000           -0.4018533             -10.9350
       199        2.0000           -0.4011720             -10.9164
       200        2.0000           -0.4004592             -10.8970
       201        2.0000           -0.3925837             -10.6827
       202        2.0000           -0.3685094             -10.0277 (HOMO)
       203                         -0.3097848              -8.4297 (LUMO)
       204                         -0.2999495              -8.1620
       205                         -0.2578278              -7.0159
       206                         -0.2397712              -6.5245
       207                         -0.2382378              -6.4828
       208                         -0.2314933              -6.2993
       209                         -0.2244313              -6.1071
       210                         -0.1792148              -4.8767
       211                         -0.1658213              -4.5122
       212                         -0.1382157              -3.7610
       213                         -0.1153102              -3.1377
       ...                                ...                  ...
       362                          0.6853032              18.6480
      -------------------------------------------------------------
                  HL-Gap            0.0587246 Eh            1.5980 eV
             Fermi-level           -0.3391471 Eh           -9.2287 eV

     #   Z          covCN         q      C6AA      α(0)
     1   6 C        2.971    -0.046    29.142     8.855
     2   6 C        2.838     0.145    24.840     8.168
     3   6 C        2.923    -0.086    30.156     9.005
     4   6 C        2.837     0.150    24.733     8.150
     5   6 C        2.928    -0.096    30.419     9.045
     6   6 C        2.966    -0.002    28.063     8.689
     7   8 O        1.656    -0.433    21.492     6.258
     8   8 O        1.657    -0.433    21.508     6.261
     9   6 C        3.683     0.064    19.703     6.356
    10   8 O        1.653    -0.488    22.631     6.422
    11   6 C        3.746     0.100    18.996     6.217
    12   6 C        3.721     0.090    19.199     6.258
    13   6 C        3.763     0.104    18.911     6.199
    14   6 C        3.762     0.088    19.160     6.240
    15   6 C        3.743     0.088    19.197     6.251
    16   8 O        1.695    -0.348    19.859     6.017
    17   8 O        1.652    -0.470    22.254     6.368
    18   8 O        1.698    -0.334    19.602     5.978
    19   8 O        1.701    -0.281    18.660     5.832
    20   6 C        3.675     0.069    19.639     6.350
    21   8 O        1.654    -0.475    22.354     6.383
    22   6 C        2.736     0.363    20.848     7.476
    23   6 C        2.896    -0.085    30.124     8.999
    24   6 C        2.902     0.004    27.944     8.668
    25   6 C        2.897    -0.045    29.104     8.845
    26   6 C        2.895    -0.015    28.391     8.736
    27   6 C        3.807    -0.074    21.902     6.662
    28   6 C        3.729     0.122    18.684     6.171
    29   6 C        2.895    -0.074    29.839     8.956
    30   6 C        2.900    -0.034    28.834     8.804
    31   6 C        2.898    -0.057    29.407     8.891
    32   6 C        2.895    -0.035    28.865     8.809
    33   6 C        3.806    -0.061    21.676     6.628
    34   6 C        3.802    -0.066    21.760     6.641
    35   6 C        3.801    -0.061    21.668     6.628
    36   6 C        3.799    -0.058    21.614     6.619
    37   6 C        3.751    -0.109    22.639     6.786
    38   8 O        0.858    -0.491    23.593     6.512
    39   8 O        1.652    -0.499    22.871     6.456
    40   6 C        3.669     0.237    17.138     5.935
    41   8 O        1.695    -0.372    20.306     6.084
    42   6 C        3.748     0.089    19.171     6.245
    43   6 C        3.722     0.069    19.536     6.312
    44   6 C        3.726     0.087    19.235     6.262
    45   6 C        3.741     0.082    19.283     6.265
    46   6 C        3.736     0.062    19.627     6.322
    47   8 O        1.653    -0.461    22.068     6.341
    48   8 O        1.654    -0.471    22.278     6.372
    49   8 O        1.698    -0.338    19.670     5.988
    50   6 C        3.654     0.235    17.213     5.957
    51   6 C        3.721     0.084    19.284     6.272
    52   6 C        3.723     0.093    19.148     6.249
    53   6 C        3.721     0.091    19.179     6.255
    54   6 C        3.762     0.099    18.988     6.211
    55   8 O        1.697    -0.334    19.597     5.977
    56   8 O        1.703    -0.260    18.303     5.776
    57   8 O        1.651    -0.476    22.386     6.387
    58   8 O        1.654    -0.485    22.562     6.412
    59   8 O        1.653    -0.479    22.438     6.394
    60   6 C        3.674     0.068    19.666     6.355
    61   8 O        1.651    -0.465    22.150     6.353
    62   6 C        2.756     0.368    20.763     7.462
    63   6 C        2.895    -0.097    30.450     9.047
    64   8 O        0.858    -0.476    23.253     6.465
    65   6 C        2.898    -0.003    28.097     8.691
    66   6 C        2.896    -0.047    29.170     8.855
    67   6 C        2.891    -0.022    28.556     8.761
    68   6 C        3.804    -0.063    21.714     6.634
    69   6 C        3.801    -0.059    21.634     6.622
    70   6 C        3.802    -0.061    21.675     6.628
    71   6 C        3.799    -0.059    21.630     6.622
    72   6 C        3.751    -0.108    22.624     6.783
    73   1 H        0.926     0.085     1.926     2.170
    74   1 H        0.926     0.065     2.142     2.289
    75   1 H        0.803     0.326     0.649     1.265
    76   1 H        0.804     0.362     0.561     1.177
    77   1 H        0.924     0.039     2.461     2.453
    78   1 H        0.924     0.066     2.125     2.279
    79   1 H        0.803     0.344     0.603     1.220
    80   1 H        0.924     0.029     2.600     2.522
    81   1 H        0.924     0.087     1.912     2.162
    82   1 H        0.924     0.053     2.280     2.361
    83   1 H        0.924     0.080     1.979     2.200
    84   1 H        0.924     0.048     2.350     2.397
    85   1 H        0.802     0.321     0.662     1.279
    86   1 H        0.924     0.067     2.118     2.276
    87   1 H        0.924     0.049     2.333     2.389
    88   1 H        0.803     0.351     0.586     1.203
    89   1 H        0.926     0.084     1.941     2.179
    90   1 H        0.926     0.070     2.080     2.256
    91   1 H        0.926     0.095     1.833     2.117
    92   1 H        0.926     0.058     2.224     2.332
    93   1 H        0.924     0.061     2.185     2.312
    94   1 H        0.924     0.079     1.986     2.204
    95   1 H        0.923     0.024     2.671     2.556
    96   1 H        0.926     0.045     2.386     2.416
    97   1 H        0.926     0.033     2.540     2.492
    98   1 H        0.926     0.041     2.441     2.443
    99   1 H        0.926     0.041     2.436     2.441
   100   1 H        0.924     0.044     2.390     2.418
   101   1 H        0.924     0.049     2.334     2.389
   102   1 H        0.924     0.026     2.645     2.543
   103   1 H        0.924     0.042     2.422     2.434
   104   1 H        0.924     0.031     2.567     2.506
   105   1 H        0.924     0.033     2.538     2.491
   106   1 H        0.924     0.023     2.688     2.564
   107   1 H        0.924     0.034     2.526     2.486
   108   1 H        0.924     0.037     2.489     2.467
   109   1 H        0.924     0.040     2.446     2.446
   110   1 H        0.924     0.033     2.546     2.495
   111   1 H        0.804     0.336     0.622     1.239
   112   1 H        0.924     0.026     2.645     2.543
   113   1 H        0.923     0.056     2.245     2.343
   114   1 H        0.923     0.090     1.879     2.143
   115   1 H        0.923     0.040     2.445     2.446
   116   1 H        0.924     0.076     2.018     2.222
   117   1 H        0.924     0.082     1.956     2.187
   118   1 H        0.924     0.103     1.756     2.072
   119   1 H        0.803     0.339     0.614     1.231
   120   1 H        0.804     0.367     0.549     1.164
   121   1 H        0.924     0.019     2.747     2.592
   122   1 H        0.923     0.071     2.074     2.252
   123   1 H        0.923     0.033     2.546     2.495
   124   1 H        0.923     0.042     2.427     2.436
   125   1 H        0.923     0.041     2.431     2.438
   126   1 H        0.802     0.337     0.619     1.236
   127   1 H        0.804     0.362     0.560     1.176
   128   1 H        0.803     0.363     0.559     1.174
   129   1 H        0.924     0.060     2.202     2.320
   130   1 H        0.924     0.074     2.046     2.237
   131   1 H        0.801     0.319     0.667     1.283
   132   1 H        0.926     0.105     1.737     2.061
   133   1 H        0.926     0.062     2.177     2.307
   134   1 H        0.926     0.063     2.170     2.303
   135   1 H        0.926     0.066     2.129     2.282
   136   1 H        0.924     0.043     2.407     2.426
   137   1 H        0.924     0.053     2.287     2.365
   138   1 H        0.924     0.039     2.462     2.454
   139   1 H        0.924     0.034     2.524     2.484
   140   1 H        0.924     0.037     2.493     2.469
   141   1 H        0.924     0.023     2.685     2.563
   142   1 H        0.924     0.031     2.573     2.508
   143   1 H        0.924     0.035     2.513     2.479
   144   1 H        0.924     0.038     2.471     2.458
   145   1 H        0.924     0.040     2.454     2.450
   146   1 H        0.924     0.033     2.545     2.495

 Mol. C6AA /au·bohr⁶  :     196770.838463
 Mol. C8AA /au·bohr⁸  :    4426534.340359
 Mol. α(0) /au        :        663.845015


Wiberg/Mayer (AO) data.
largest (>0.10) Wiberg bond orders for each atom

 ---------------------------------------------------------------------------
     #   Z sym  total        # sym  WBO       # sym  WBO       # sym  WBO
 ---------------------------------------------------------------------------
     1   6 C    3.972 --     6 C    1.387     2 C    1.337    11 C    0.993
     2   6 C    3.937 --     3 C    1.390     1 C    1.337     7 O    1.063
     3   6 C    3.979 --     2 C    1.390     4 C    1.382    73 H    0.962
     4   6 C    3.944 --     3 C    1.382     5 C    1.358     8 O    1.078
     5   6 C    3.981 --     6 C    1.431     4 C    1.358    74 H    0.962
     6   6 C    3.987 --     5 C    1.431     1 C    1.387     9 C    0.997
     7   8 O    2.083 --     2 C    1.063    75 H    0.846
     8   8 O    2.087 --     4 C    1.078    76 H    0.851
     9   6 C    3.951 --     6 C    0.997    10 O    0.985    77 H    0.966
                            78 H    0.953
    10   8 O    1.942 --     9 C    0.985    79 H    0.865
    11   6 C    3.939 --     1 C    0.993    16 O    0.948    12 C    0.948
                            80 H    0.946
    12   6 C    3.948 --    17 O    1.001    13 C    0.958    11 C    0.948
                            81 H    0.948
    13   6 C    3.927 --    14 C    0.966    12 C    0.958    19 O    0.943
                            82 H    0.934
    14   6 C    3.928 --    13 C    0.966    15 C    0.961    18 O    0.952
                            83 H    0.947
    15   6 C    3.945 --    20 C    0.982    16 O    0.967    14 C    0.961
                            84 H    0.947
    16   8 O    2.066 --    15 C    0.967    11 C    0.948
    17   8 O    1.955 --    12 C    1.001    85 H    0.848
    18   8 O    2.088 --    40 C    0.986    14 C    0.952
    19   8 O    2.286 --    22 C    1.097    13 C    0.943    38 O    0.149
    20   6 C    3.959 --    21 O    1.012    15 C    0.982    86 H    0.967
                            87 H    0.966
    21   8 O    1.930 --    20 C    1.012    88 H    0.857
    22   6 C    3.897 --    38 O    1.612    19 O    1.097    23 C    1.072
    23   6 C    3.977 --    24 C    1.745    22 C    1.072    89 H    0.954
    24   6 C    3.969 --    23 C    1.745    25 C    1.112    90 H    0.952
    25   6 C    3.983 --    26 C    1.836    24 C    1.112    91 H    0.941
    26   6 C    3.978 --    25 C    1.836    27 C    1.034    92 H    0.962
    27   6 C    3.985 --    26 C    1.034    93 H    0.974    94 H    0.954
                            28 C    0.952
    28   6 C    3.952 --    29 C    1.004    39 O    0.977    95 H    0.960
                            27 C    0.952
    29   6 C    3.976 --    30 C    1.830    28 C    1.004    96 H    0.965
                            32 C    0.130
    30   6 C    3.991 --    29 C    1.830    31 C    1.126    97 H    0.958
    31   6 C    3.989 --    32 C    1.822    30 C    1.126    98 H    0.962
    32   6 C    3.981 --    31 C    1.822    33 C    1.034    99 H    0.959
                            29 C    0.130
    33   6 C    3.996 --    32 C    1.034    34 C    1.000   100 H    0.969
                           101 H    0.947
    34   6 C    3.992 --    35 C    1.007    33 C    1.000   102 H    0.974
                           103 H    0.965
    35   6 C    3.996 --    34 C    1.007    36 C    1.007   105 H    0.977
                           104 H    0.976
    36   6 C    3.995 --    37 C    1.020    35 C    1.007   106 H    0.972
                           107 H    0.968
    37   6 C    3.996 --    36 C    1.020   108 H    0.987   109 H    0.987
                           110 H    0.987
    38   8 O    1.981 --    22 C    1.612    19 O    0.149
    39   8 O    1.921 --    28 C    0.977   111 H    0.872
    40   6 C    3.921 --    18 O    0.986    45 C    0.954    41 O    0.945
                           112 H    0.925
    41   8 O    2.048 --    42 C    0.949    40 C    0.945
    42   6 C    3.931 --    46 C    0.978    43 C    0.965    41 O    0.949
                           113 H    0.936
    43   6 C    3.959 --    47 O    1.007    42 C    0.965    44 C    0.957
                           114 H    0.955
    44   6 C    3.965 --    48 O    1.010    45 C    0.958    43 C    0.957
                           115 H    0.954
    45   6 C    3.946 --    49 O    0.976    44 C    0.958    40 C    0.954
                           116 H    0.951
    46   6 C    3.923 --    42 C    0.978    56 O    0.962   118 H    0.961
                           117 H    0.959
    47   8 O    1.959 --    43 C    1.007   119 H    0.864
    48   8 O    1.956 --    44 C    1.010   120 H    0.845
    49   8 O    2.096 --    45 C    0.976    50 C    0.960
    50   6 C    3.924 --    55 O    0.976    49 O    0.960    51 C    0.953
                           121 H    0.943
    51   6 C    3.956 --    57 O    1.002    52 C    0.963   122 H    0.953
                            50 C    0.953
    52   6 C    3.963 --    58 O    0.999    53 C    0.965    51 C    0.963
                           123 H    0.960
    53   6 C    3.967 --    59 O    1.008    54 C    0.967    52 C    0.965
                           124 H    0.959
    54   6 C    3.936 --    60 C    0.988    53 C    0.967   125 H    0.954
                            55 O    0.952
    55   8 O    2.083 --    50 C    0.976    54 C    0.952
    56   8 O    2.292 --    62 C    1.108    46 C    0.962    64 O    0.146
    57   8 O    1.942 --    51 C    1.002   126 H    0.852
    58   8 O    1.930 --    52 C    0.999   127 H    0.851
    59   8 O    1.928 --    53 C    1.008   128 H    0.846
    60   6 C    3.953 --    61 O    0.999    54 C    0.988   129 H    0.967
                           130 H    0.961
    61   8 O    1.943 --    60 C    0.999   131 H    0.863
    62   6 C    3.887 --    64 O    1.652    56 O    1.108    63 C    1.029
    63   6 C    3.971 --    65 C    1.777    62 C    1.029   132 H    0.937
                            67 C    0.126
    64   8 O    2.000 --    62 C    1.652    56 O    0.146
    65   6 C    3.980 --    63 C    1.777    66 C    1.140   133 H    0.952
    66   6 C    3.986 --    67 C    1.804    65 C    1.140   134 H    0.961
    67   6 C    3.979 --    66 C    1.804    68 C    1.034   135 H    0.966
                            63 C    0.126
    68   6 C    3.995 --    67 C    1.034    69 C    0.982   137 H    0.975
                           136 H    0.958
    69   6 C    3.993 --    70 C    1.006    68 C    0.982   138 H    0.977
                           139 H    0.970
    70   6 C    3.995 --    71 C    1.006    69 C    1.006   140 H    0.976
                           141 H    0.965
    71   6 C    3.994 --    72 C    1.020    70 C    1.006   142 H    0.977
                           143 H    0.971
    72   6 C    3.995 --    71 C    1.020   144 H    0.987   145 H    0.986
                           146 H    0.984
    73   1 H    0.992 --     3 C    0.962
    74   1 H    0.995 --     5 C    0.962
    75   1 H    0.893 --     7 O    0.846
    76   1 H    0.869 --     8 O    0.851
    77   1 H    0.998 --     9 C    0.966
    78   1 H    0.995 --     9 C    0.953
    79   1 H    0.882 --    10 O    0.865
    80   1 H    0.999 --    11 C    0.946
    81   1 H    0.992 --    12 C    0.948
    82   1 H    0.997 --    13 C    0.934
    83   1 H    0.993 --    14 C    0.947
    84   1 H    0.997 --    15 C    0.947
    85   1 H    0.897 --    17 O    0.848
    86   1 H    0.995 --    20 C    0.967
    87   1 H    0.998 --    20 C    0.966
    88   1 H    0.877 --    21 O    0.857
    89   1 H    0.993 --    23 C    0.954
    90   1 H    0.994 --    24 C    0.952
    91   1 H    0.989 --    25 C    0.941
    92   1 H    0.997 --    26 C    0.962
    93   1 H    0.996 --    27 C    0.974
    94   1 H    0.991 --    27 C    0.954
    95   1 H    0.997 --    28 C    0.960
    96   1 H    0.998 --    29 C    0.965
    97   1 H    0.999 --    30 C    0.958
    98   1 H    0.998 --    31 C    0.962
    99   1 H    0.998 --    32 C    0.959
   100   1 H    0.998 --    33 C    0.969
   101   1 H    0.990 --    33 C    0.947
   102   1 H    0.999 --    34 C    0.974
   103   1 H    0.998 --    34 C    0.965
   104   1 H    0.999 --    35 C    0.976
   105   1 H    0.999 --    35 C    0.977
   106   1 H    0.999 --    36 C    0.972
   107   1 H    0.999 --    36 C    0.968
   108   1 H    0.999 --    37 C    0.987
   109   1 H    0.998 --    37 C    0.987
   110   1 H    0.999 --    37 C    0.987
   111   1 H    0.887 --    39 O    0.872
   112   1 H    0.999 --    40 C    0.925
   113   1 H    0.997 --    42 C    0.936
   114   1 H    0.992 --    43 C    0.955
   115   1 H    0.998 --    44 C    0.954
   116   1 H    0.994 --    45 C    0.951
   117   1 H    0.993 --    46 C    0.959
   118   1 H    0.988 --    46 C    0.961
   119   1 H    0.885 --    47 O    0.864
   120   1 H    0.865 --    48 O    0.845
   121   1 H    0.999 --    50 C    0.943
   122   1 H    0.995 --    51 C    0.953
   123   1 H    0.999 --    52 C    0.960
   124   1 H    0.998 --    53 C    0.959
   125   1 H    0.998 --    54 C    0.954
   126   1 H    0.886 --    57 O    0.852
   127   1 H    0.868 --    58 O    0.851
   128   1 H    0.868 --    59 O    0.846
   129   1 H    0.996 --    60 C    0.967
   130   1 H    0.994 --    60 C    0.961
   131   1 H    0.898 --    61 O    0.863
   132   1 H    0.988 --    63 C    0.937
   133   1 H    0.996 --    65 C    0.952
   134   1 H    0.995 --    66 C    0.961
   135   1 H    0.994 --    67 C    0.966
   136   1 H    0.998 --    68 C    0.958
   137   1 H    0.996 --    68 C    0.975
   138   1 H    0.998 --    69 C    0.977
   139   1 H    0.999 --    69 C    0.970
   140   1 H    0.998 --    70 C    0.976
   141   1 H    0.999 --    70 C    0.965
   142   1 H    0.999 --    71 C    0.977
   143   1 H    0.999 --    71 C    0.971
   144   1 H    0.998 --    72 C    0.987
   145   1 H    0.998 --    72 C    0.986
   146   1 H    0.999 --    72 C    0.984
 ---------------------------------------------------------------------------

Topologies differ in total number of bonds
Writing topology from bond orders to xtbtopo.mol

molecular dipole:
                 x           y           z       tot (Debye)
 q only:       -1.319       1.652      -1.796
   full:       -1.366       1.751      -1.245       6.472
molecular quadrupole (traceless):
                xx          xy          yy          xz          yz          zz
 q only:        2.044     -18.337     -10.141     -11.161       1.288       8.097
  q+dip:       -7.057     -17.376     -16.002     -12.661       5.455      23.059
   full:       -4.158     -17.331     -15.963     -13.604       4.101      20.121


           -------------------------------------------------
          | TOTAL ENERGY             -232.356692595990 Eh   |
          | GRADIENT NORM               0.126576131074 Eh/α |
          | HOMO-LUMO GAP               1.597978552698 eV   |
           -------------------------------------------------

------------------------------------------------------------------------
 * finished run on 2026/06/19 at 18:52:08.951     
------------------------------------------------------------------------
 total:
 * wall-time:     0 d,  0 h,  0 min,  0.319 sec
 *  cpu-time:     0 d,  0 h,  0 min,  4.838 sec
 * ratio c/w:    15.168 speedup
 SCF:
 * wall-time:     0 d,  0 h,  0 min,  0.263 sec
 *  cpu-time:     0 d,  0 h,  0 min,  4.109 sec
 * ratio c/w:    15.640 speedup

normal termination of xtb
