      -----------------------------------------------------------      
     |                   =====================                   |     
     |                           x T B                           |     
     |                   =====================                   |     
     |                         S. Grimme                         |     
     |          Mulliken Center for Theoretical Chemistry        |     
     |                    University of Bonn                     |     
      -----------------------------------------------------------      

   * xtb version 6.7.1 (edcfbbe) compiled by 'albert@albert-system' on 2024-07-22

   xtb is free software: you can redistribute it and/or modify it under
   the terms of the GNU Lesser General Public License as published by
   the Free Software Foundation, either version 3 of the License, or
   (at your option) any later version.
   
   xtb is distributed in the hope that it will be useful,
   but WITHOUT ANY WARRANTY; without even the implied warranty of
   MERCHANTABILITY or FITNESS FOR A PARTICULAR PURPOSE.  See the
   GNU Lesser General Public License for more details.
   
   Cite this work as:
   * C. Bannwarth, E. Caldeweyher, S. Ehlert, A. Hansen, P. Pracht,
     J. Seibert, S. Spicher, S. Grimme, WIREs Comput. Mol. Sci., 2020, 11,
     e01493. DOI: 10.1002/wcms.1493
   
   for GFN2-xTB:
   * C. Bannwarth, S. Ehlert and S. Grimme., J. Chem. Theory Comput., 2019,
     15, 1652-1671. DOI: 10.1021/acs.jctc.8b01176
   for GFN1-xTB:
   * S. Grimme, C. Bannwarth, P. Shushkov, J. Chem. Theory Comput., 2017,
     13, 1989-2009. DOI: 10.1021/acs.jctc.7b00118
   for GFN0-xTB:
   * P. Pracht, E. Caldeweyher, S. Ehlert, S. Grimme, ChemRxiv, 2019, preprint.
     DOI: 10.26434/chemrxiv.8326202.v1
   for GFN-FF:
   * S. Spicher and S. Grimme, Angew. Chem. Int. Ed., 2020, 59, 15665-15673.
     DOI: 10.1002/anie.202004239
   
   for ALPB and GBSA implicit solvation:
   * S. Ehlert, M. Stahn, S. Spicher, S. Grimme, J. Chem. Theory Comput.,
     2021, 17, 4250-4261. DOI: 10.1021/acs.jctc.1c00471
   
   for ddCOSMO and CPCM-X implicit solvation:
   * M. Stahn, S. Ehlert, S. Grimme, J. Phys. Chem. A,
     2023, XX, XXXX-XXXX. DOI: 10.1021/acs.jpca.3c04382
   
   for DFT-D4:
   * E. Caldeweyher, C. Bannwarth and S. Grimme, J. Chem. Phys., 2017,
     147, 034112. DOI: 10.1063/1.4993215
   * E. Caldeweyher, S. Ehlert, A. Hansen, H. Neugebauer, S. Spicher,
     C. Bannwarth and S. Grimme, J. Chem. Phys., 2019, 150, 154122.
     DOI: 10.1063/1.5090222
   * E. Caldeweyher, J.-M. Mewes, S. Ehlert and S. Grimme, Phys. Chem. Chem. Phys.
     2020, 22, 8499-8512. DOI: 10.1039/D0CP00502A
   
   for sTDA-xTB:
   * S. Grimme and C. Bannwarth, J. Chem. Phys., 2016, 145, 054103.
     DOI: 10.1063/1.4959605
   
   in the mass-spec context:
   * V. Asgeirsson, C. Bauer and S. Grimme, Chem. Sci., 2017, 8, 4879.
     DOI: 10.1039/c7sc00601b
   * J. Koopman and S. Grimme, ACS Omega 2019, 4, 12, 15120-15133.
     DOI: 10.1021/acsomega.9b02011
   
   for metadynamics refer to:
   * S. Grimme, J. Chem. Theory Comput., 2019, 155, 2847-2862
     DOI: 10.1021/acs.jctc.9b00143
   
   for SPH calculations refer to:
   * S. Spicher and S. Grimme, J. Chem. Theory Comput., 2021, 17, 1701-1714
     DOI: 10.1021/acs.jctc.0c01306
   
   for ONIOM refer to:
   * C. Plett, A. Katbashev, S. Ehlert, S. Grimme, M. Bursch,
     Phys. Chem. Chem. Phys., 2023, 25, 17860-17868. DOI: 10.1039/D3CP02178E
   
   for DIPRO refer to:
   * J. Kohn, N. Gildemeister, S. Grimme, D. Fazzi, A. Hansen,
     J. Chem. Phys., 2023, just accepted.
   
   for PTB refer to:
   * S. Grimme, M. Mueller, A. Hansen, J. Chem. Phys., 2023, 158, 124111.
     DOI: 10.1063/5.0137838
   
   with help from (in alphabetical order)
   P. Atkinson, C. Bannwarth, F. Bohle, G. Brandenburg, E. Caldeweyher
   M. Checinski, S. Dohm, S. Ehlert, S. Ehrlich, I. Gerasimov, C. Hölzer
   A. Katbashev, J. Kohn, J. Koopman, C. Lavigne, S. Lehtola, F. März, M. Müller,
   F. Musil, H. Neugebauer, J. Pisarek, C. Plett, P. Pracht, F. Pultar,
   J. Seibert, P. Shushkov, S. Spicher, M. Stahn, M. Steiner, T. Strunk,
   J. Stückrath, T. Rose, and J. Unsleber
   
 * started run on 2026/06/19 at 18:52:14.484     
   ID    Z sym.   atoms
    1    6 C      1-11, 13, 18, 20, 22-25, 29, 31, 33, 34, 36-41, 43-50,
                  53-57, 59, 64-73
    2    8 O      12, 14-17, 19, 21, 26-28, 30, 32, 35, 42, 51, 52, 58, 60-63
    3    1 H      74-149

           -------------------------------------------------
          |                Calculation Setup                |
           -------------------------------------------------

          program call               : xtb PAPU-0071/conf02.xyz --gfn 2 --alpb octanol --chrg 0 --uhf 0 --namespace PAPU-0071/conf02_octanol
          hostname                   : cpu10
          calculation namespace      : PAPU-0071/conf02_octanol
          coordinate file            : PAPU-0071/conf02.xyz
          omp threads                :                    16


           -------------------------------------------------
          |                 G F N 2 - x T B                 |
           -------------------------------------------------

        Reference                      10.1021/acs.jctc.8b01176
      * Hamiltonian:
        H0-scaling (s, p, d)           1.850000    2.230000    2.230000
        zeta-weighting                 0.500000
      * Dispersion:
        s8                             2.700000
        a1                             0.520000
        a2                             5.000000
        s9                             5.000000
      * Repulsion:
        kExp                           1.500000    1.000000
        rExp                           1.000000
      * Coulomb:
        alpha                          2.000000
        third order                    shell-resolved
        anisotropic                    true
        a3                             3.000000
        a5                             4.000000
        cn-shift                       1.200000
        cn-exp                         4.000000
        max-rad                        5.000000

      * Solvation model:               ALPB
        Solvent                        octanol
        Parameter file                 internal GFN2-xTB/ALPB
        Dielectric constant                9.8629E+00
        Reference state                gsolv [1 M gas/solution]
        Free energy shift                  2.3397E-03 Eh       1.4682E+00 kcal/mol
        Temperature                        2.9815E+02 K
        Density                            8.3000E-01 kg/L
        Solvent mass                       1.3023E+02 g/mol
        Interaction kernel             P16
        Born radius scaling (c1)           1.5898E+00
        Born radii integrator          GBOBC
        Born offset                        0.0000E+00 a0       0.0000E+00 AA
        H-bond correction              true
        Ion screening                  false
        Surface tension                    1.0000E-05 Eh       1.5569E+01 dyn/cm
        Grid points                               230 per atom

          ...................................................
          :                      SETUP                      :
          :.................................................:
          :  # basis functions                 368          :
          :  # atomic orbitals                 368          :
          :  # shells                          222          :
          :  # electrons                       410          :
          :  max. iterations                   250          :
          :  Hamiltonian                  GFN2-xTB          :
          :  restarted?                      false          :
          :  GBSA solvation                   true          :
          :  PC potential                    false          :
          :  electronic temp.          300.0000000     K    :
          :  accuracy                    1.0000000          :
          :  -> integral cutoff          0.2500000E+02      :
          :  -> integral neglect         0.1000000E-07      :
          :  -> SCF convergence          0.1000000E-05 Eh   :
          :  -> wf. convergence          0.1000000E-03 e    :
          :  Broyden damping             0.4000000          :
          :  net charge                          0          :
          :  unpaired electrons                  0          :
          ...................................................

 iter      E             dE          RMSdq      gap      omega  full diag
   1   -237.7445346 -0.237745E+03  0.433E+00    2.33       0.0  T
   2   -237.9976644 -0.253130E+00  0.238E+00    1.64       1.0  T
   3   -237.9734687  0.241957E-01  0.111E+00    1.69       1.0  T
   4   -238.0196353 -0.461665E-01  0.352E-01    1.48       1.0  T
   5   -238.0294312 -0.979595E-02  0.138E-01    1.44       1.0  T
   6   -238.0306176 -0.118633E-02  0.609E-02    1.46       1.0  T
   7   -238.0307060 -0.883842E-04  0.269E-02    1.46       1.0  T
   8   -238.0307318 -0.257962E-04  0.107E-02    1.46       1.0  T
   9   -238.0307358 -0.404116E-05  0.483E-03    1.46       1.7  T
  10   -238.0307368 -0.974506E-06  0.259E-03    1.46       3.2  T
  11   -238.0307370 -0.276242E-06  0.131E-03    1.46       6.3  T
  12   -238.0307371 -0.439441E-07  0.509E-04    1.46      16.1  T
  13   -238.0307371 -0.126757E-07  0.248E-04    1.46      33.0  T

   *** convergence criteria satisfied after 13 iterations ***

         #    Occupation            Energy/Eh            Energy/eV
      -------------------------------------------------------------
         1        2.0000           -0.7864939             -21.4016
       ...           ...                  ...                  ...
       199        2.0000           -0.4087845             -11.1236
       200        2.0000           -0.4084245             -11.1138
       201        2.0000           -0.4068292             -11.0704
       202        2.0000           -0.4012158             -10.9176
       203        2.0000           -0.3878985             -10.5553
       204        2.0000           -0.3859426             -10.5020
       205        2.0000           -0.3793982             -10.3239 (HOMO)
       206                         -0.3256884              -8.8624 (LUMO)
       207                         -0.2978431              -8.1047
       208                         -0.2479036              -6.7458
       209                         -0.2409102              -6.5555
       210                         -0.2358341              -6.4174
       ...                                ...                  ...
       368                          0.6967088              18.9584
      -------------------------------------------------------------
                  HL-Gap            0.0537098 Eh            1.4615 eV
             Fermi-level           -0.3525433 Eh           -9.5932 eV

 SCC (total)                   0 d,  0 h,  0 min,  0.249 sec
 SCC setup                      ...        0 min,  0.003 sec (  1.382%)
 Dispersion                     ...        0 min,  0.005 sec (  1.924%)
 classical contributions        ...        0 min,  0.000 sec (  0.053%)
 integral evaluation            ...        0 min,  0.011 sec (  4.466%)
 iterations                     ...        0 min,  0.190 sec ( 76.322%)
 molecular gradient             ...        0 min,  0.039 sec ( 15.534%)
 printout                       ...        0 min,  0.001 sec (  0.303%)

         :::::::::::::::::::::::::::::::::::::::::::::::::::::
         ::                     SUMMARY                     ::
         :::::::::::::::::::::::::::::::::::::::::::::::::::::
         :: total energy            -235.530381417652 Eh    ::
         :: total w/o Gsasa/hb      -235.460071783721 Eh    ::
         :: gradient norm              0.131670653179 Eh/a0 ::
         :: HOMO-LUMO gap              1.461518039883 eV    ::
         ::.................................................::
         :: SCC energy              -238.018068362735 Eh    ::
         :: -> isotropic ES            0.532210793972 Eh    ::
         :: -> anisotropic ES         -0.026636415900 Eh    ::
         :: -> anisotropic XC          0.023008094868 Eh    ::
         :: -> dispersion             -0.194104881310 Eh    ::
         :: -> Gsolv                  -0.099872819678 Eh    ::
         ::    -> Gelec               -0.029563185748 Eh    ::
         ::    -> Gsasa               -0.029632604671 Eh    ::
         ::    -> Ghb                 -0.043016698636 Eh    ::
         ::    -> Gshift               0.002339669376 Eh    ::
         :: repulsion energy           2.487686945083 Eh    ::
         :: add. restraining           0.000000000000 Eh    ::
         :: total charge              -0.000000000000 e     ::
         :::::::::::::::::::::::::::::::::::::::::::::::::::::

           -------------------------------------------------
          |                Property Printout                |
           -------------------------------------------------

    * Orbital Energies and Occupations

         #    Occupation            Energy/Eh            Energy/eV
      -------------------------------------------------------------
         1        2.0000           -0.7864939             -21.4016
       ...           ...                  ...                  ...
       193        2.0000           -0.4186474             -11.3920
       194        2.0000           -0.4181386             -11.3781
       195        2.0000           -0.4180396             -11.3754
       196        2.0000           -0.4152899             -11.3006
       197        2.0000           -0.4126919             -11.2299
       198        2.0000           -0.4117820             -11.2052
       199        2.0000           -0.4087845             -11.1236
       200        2.0000           -0.4084245             -11.1138
       201        2.0000           -0.4068292             -11.0704
       202        2.0000           -0.4012158             -10.9176
       203        2.0000           -0.3878985             -10.5553
       204        2.0000           -0.3859426             -10.5020
       205        2.0000           -0.3793982             -10.3239 (HOMO)
       206                         -0.3256884              -8.8624 (LUMO)
       207                         -0.2978431              -8.1047
       208                         -0.2479036              -6.7458
       209                         -0.2409102              -6.5555
       210                         -0.2358341              -6.4174
       211                         -0.2267144              -6.1692
       212                         -0.2135180              -5.8101
       213                         -0.1739528              -4.7335
       214                         -0.1573699              -4.2823
       215                         -0.1420009              -3.8640
       216                         -0.1122314              -3.0540
       ...                                ...                  ...
       368                          0.6967088              18.9584
      -------------------------------------------------------------
                  HL-Gap            0.0537098 Eh            1.4615 eV
             Fermi-level           -0.3525433 Eh           -9.5932 eV

     #   Z          covCN         q      C6AA      α(0)
     1   6 C        2.842     0.145    24.841     8.168
     2   6 C        2.971    -0.047    29.174     8.860
     3   6 C        2.965     0.010    27.797     8.648
     4   6 C        2.929    -0.076    29.904     8.968
     5   6 C        2.839     0.150    24.735     8.150
     6   6 C        2.920    -0.100    30.529     9.061
     7   6 C        3.741     0.101    18.982     6.216
     8   6 C        3.720     0.093    19.151     6.250
     9   6 C        3.752     0.103    18.941     6.206
    10   6 C        3.744     0.093    19.112     6.237
    11   6 C        3.740     0.090    19.162     6.246
    12   8 O        1.694    -0.344    19.783     6.005
    13   6 C        3.682     0.076    19.513     6.326
    14   8 O        1.653    -0.489    22.652     6.425
    15   8 O        1.651    -0.493    22.742     6.437
    16   8 O        1.698    -0.328    19.483     5.959
    17   8 O        1.702    -0.296    18.925     5.873
    18   6 C        3.674     0.074    19.573     6.340
    19   8 O        1.652    -0.463    22.115     6.348
    20   6 C        3.636     0.247    17.116     5.953
    21   8 O        1.695    -0.362    20.115     6.055
    22   6 C        3.744     0.091    19.142     6.241
    23   6 C        3.723     0.079    19.368     6.285
    24   6 C        3.722     0.086    19.254     6.266
    25   6 C        3.748     0.091    19.128     6.238
    26   8 O        1.653    -0.465    22.146     6.353
    27   8 O        1.698    -0.318    19.315     5.934
    28   8 O        1.651    -0.484    22.549     6.410
    29   6 C        3.734     0.063    19.602     6.319
    30   8 O        1.704    -0.274    18.551     5.815
    31   6 C        2.753     0.351    21.034     7.510
    32   8 O        0.857    -0.485    23.452     6.493
    33   6 C        2.726     0.353    21.000     7.502
    34   6 C        2.896    -0.097    30.449     9.047
    35   8 O        0.857    -0.485    23.458     6.494
    36   6 C        2.903    -0.002    28.066     8.687
    37   6 C        2.898    -0.054    29.351     8.883
    38   6 C        2.895    -0.003    28.110     8.693
    39   6 C        3.805    -0.081    22.038     6.683
    40   6 C        3.726     0.117    18.763     6.185
    41   6 C        2.895    -0.074    29.854     8.958
    42   8 O        1.652    -0.501    22.909     6.461
    43   6 C        2.897    -0.044    29.102     8.845
    44   6 C        2.899    -0.058    29.451     8.898
    45   6 C        2.895    -0.040    28.989     8.828
    46   6 C        3.805    -0.066    21.755     6.640
    47   6 C        3.802    -0.064    21.729     6.637
    48   6 C        3.799    -0.061    21.675     6.629
    49   6 C        3.798    -0.054    21.543     6.609
    50   6 C        3.750    -0.114    22.745     6.802
    51   8 O        1.656    -0.428    21.407     6.246
    52   8 O        1.657    -0.431    21.465     6.254
    53   6 C        3.646     0.240    17.173     5.956
    54   6 C        3.722     0.087    19.238     6.264
    55   6 C        3.724     0.096    19.100     6.241
    56   6 C        3.723     0.088    19.229     6.262
    57   6 C        3.744     0.103    18.960     6.211
    58   8 O        1.696    -0.360    20.084     6.051
    59   6 C        3.674     0.065    19.712     6.362
    60   8 O        1.653    -0.462    22.100     6.346
    61   8 O        1.653    -0.473    22.315     6.377
    62   8 O        1.654    -0.483    22.521     6.406
    63   8 O        1.653    -0.473    22.321     6.378
    64   6 C        3.798    -0.052    21.509     6.603
    65   6 C        3.799    -0.064    21.738     6.638
    66   6 C        3.798    -0.064    21.724     6.636
    67   6 C        2.898    -0.102    30.571     9.066
    68   6 C        2.899     0.005    27.918     8.663
    69   6 C        2.901    -0.046    29.140     8.851
    70   6 C        2.894    -0.008    28.208     8.708
    71   6 C        3.799    -0.060    21.660     6.626
    72   6 C        3.805    -0.068    21.791     6.646
    73   6 C        3.750    -0.114    22.755     6.803
    74   1 H        0.926     0.078     2.000     2.212
    75   1 H        0.926     0.075     2.027     2.227
    76   1 H        0.924     0.048     2.343     2.394
    77   1 H        0.923     0.047     2.363     2.404
    78   1 H        0.924     0.043     2.406     2.426
    79   1 H        0.923     0.078     2.000     2.212
    80   1 H        0.924     0.042     2.420     2.433
    81   1 H        0.924     0.041     2.442     2.444
    82   1 H        0.924     0.030     2.588     2.516
    83   1 H        0.803     0.348     0.592     1.209
    84   1 H        0.803     0.342     0.607     1.224
    85   1 H        0.924     0.074     2.046     2.237
    86   1 H        0.924     0.043     2.404     2.425
    87   1 H        0.801     0.328     0.644     1.261
    88   1 H        0.924     0.011     2.878     2.653
    89   1 H        0.923     0.051     2.307     2.376
    90   1 H        0.923     0.056     2.244     2.343
    91   1 H        0.924     0.087     1.911     2.162
    92   1 H        0.924     0.083     1.953     2.186
    93   1 H        0.803     0.353     0.582     1.199
    94   1 H        0.802     0.345     0.601     1.218
    95   1 H        0.924     0.073     2.048     2.238
    96   1 H        0.924     0.093     1.855     2.130
    97   1 H        0.926     0.082     1.953     2.186
    98   1 H        0.926     0.079     1.984     2.203
    99   1 H        0.926     0.076     2.021     2.223
   100   1 H        0.926     0.083     1.951     2.184
   101   1 H        0.924     0.104     1.747     2.067
   102   1 H        0.924     0.085     1.926     2.170
   103   1 H        0.923     0.034     2.534     2.489
   104   1 H        0.926     0.052     2.300     2.372
   105   1 H        0.804     0.338     0.616     1.233
   106   1 H        0.926     0.046     2.364     2.404
   107   1 H        0.926     0.047     2.356     2.400
   108   1 H        0.926     0.050     2.325     2.384
   109   1 H        0.924     0.041     2.434     2.440
   110   1 H        0.924     0.045     2.377     2.411
   111   1 H        0.924     0.030     2.592     2.518
   112   1 H        0.924     0.048     2.349     2.397
   113   1 H        0.924     0.031     2.572     2.508
   114   1 H        0.924     0.034     2.526     2.485
   115   1 H        0.924     0.026     2.639     2.541
   116   1 H        0.923     0.032     2.565     2.505
   117   1 H        0.924     0.051     2.311     2.377
   118   1 H        0.924     0.027     2.633     2.538
   119   1 H        0.924     0.034     2.528     2.486
   120   1 H        0.803     0.336     0.621     1.238
   121   1 H        0.804     0.361     0.564     1.179
   122   1 H        0.923    -0.001     3.073     2.741
   123   1 H        0.924     0.063     2.166     2.302
   124   1 H        0.923     0.024     2.678     2.559
   125   1 H        0.923     0.043     2.405     2.425
   126   1 H        0.924     0.006     2.955     2.688
   127   1 H        0.924     0.092     1.858     2.132
   128   1 H        0.924     0.058     2.223     2.331
   129   1 H        0.803     0.339     0.614     1.231
   130   1 H        0.804     0.366     0.552     1.167
   131   1 H        0.804     0.358     0.569     1.185
   132   1 H        0.802     0.324     0.652     1.269
   133   1 H        0.923     0.023     2.686     2.563
   134   1 H        0.924     0.029     2.606     2.525
   135   1 H        0.924     0.034     2.528     2.487
   136   1 H        0.924     0.031     2.575     2.510
   137   1 H        0.924     0.039     2.468     2.457
   138   1 H        0.924     0.038     2.478     2.462
   139   1 H        0.926     0.085     1.924     2.169
   140   1 H        0.926     0.072     2.060     2.244
   141   1 H        0.926     0.077     2.009     2.216
   142   1 H        0.926     0.060     2.204     2.322
   143   1 H        0.923     0.045     2.381     2.413
   144   1 H        0.924     0.035     2.516     2.481
   145   1 H        0.924     0.066     2.129     2.282
   146   1 H        0.924     0.054     2.275     2.359
   147   1 H        0.924     0.036     2.509     2.477
   148   1 H        0.924     0.049     2.336     2.390
   149   1 H        0.924     0.029     2.605     2.524

 Mol. C6AA /au·bohr⁶  :     203861.974628
 Mol. C8AA /au·bohr⁸  :    4581354.638329
 Mol. α(0) /au        :        675.643487


Wiberg/Mayer (AO) data.
largest (>0.10) Wiberg bond orders for each atom

 ---------------------------------------------------------------------------
     #   Z sym  total        # sym  WBO       # sym  WBO       # sym  WBO
 ---------------------------------------------------------------------------
     1   6 C    3.943 --     6 C    1.385     2 C    1.334    51 O    1.073
     2   6 C    3.969 --     3 C    1.388     1 C    1.334     7 C    0.988
     3   6 C    3.987 --     4 C    1.433     2 C    1.388    13 C    1.001
     4   6 C    3.982 --     3 C    1.433     5 C    1.356    74 H    0.963
     5   6 C    3.945 --     6 C    1.382     4 C    1.356    52 O    1.079
     6   6 C    3.977 --     1 C    1.385     5 C    1.382    75 H    0.960
     7   6 C    3.933 --     2 C    0.988     8 C    0.949    12 O    0.948
                            76 H    0.947
     8   6 C    3.954 --    15 O    0.995     9 C    0.964    77 H    0.959
                             7 C    0.949
     9   6 C    3.930 --    10 C    0.969     8 C    0.964    78 H    0.951
                            17 O    0.940
    10   6 C    3.938 --     9 C    0.969    16 O    0.966    11 C    0.959
                            79 H    0.954
    11   6 C    3.944 --    18 C    0.979    12 O    0.963    10 C    0.959
                            80 H    0.940
    12   8 O    2.086 --    11 C    0.963     7 C    0.948
    13   6 C    3.957 --     3 C    1.001    14 O    0.982    81 H    0.968
                            82 H    0.961
    14   8 O    1.932 --    13 C    0.982    83 H    0.864
    15   8 O    1.921 --     8 C    0.995    84 H    0.833
    16   8 O    2.089 --    20 C    0.981    10 C    0.966
    17   8 O    2.264 --    33 C    1.086     9 C    0.940    35 O    0.143
    18   6 C    3.960 --    19 O    1.015    11 C    0.979    85 H    0.966
                            86 H    0.964
    19   8 O    1.942 --    18 C    1.015    87 H    0.851
    20   6 C    3.923 --    16 O    0.981    21 O    0.953    25 C    0.952
                            88 H    0.940
    21   8 O    2.056 --    20 C    0.953    22 C    0.949
    22   6 C    3.932 --    29 C    0.972    23 C    0.970    89 H    0.951
                            21 O    0.949
    23   6 C    3.962 --    28 O    0.998    22 C    0.970    24 C    0.967
                            90 H    0.957
    24   6 C    3.960 --    26 O    1.009    23 C    0.967    25 C    0.958
                            91 H    0.944
    25   6 C    3.937 --    27 O    0.967    24 C    0.958    92 H    0.954
                            20 C    0.952
    26   8 O    1.952 --    24 C    1.009    93 H    0.853
    27   8 O    2.087 --    53 C    0.983    25 C    0.967
    28   8 O    1.929 --    23 C    0.998    94 H    0.837
    29   6 C    3.933 --    30 O    0.973    22 C    0.972    96 H    0.964
                            95 H    0.958
    30   8 O    2.268 --    31 C    1.076    29 C    0.973    32 O    0.138
    31   6 C    3.898 --    32 O    1.621    67 C    1.093    30 O    1.076
    32   8 O    1.983 --    31 C    1.621    30 O    0.138
    33   6 C    3.895 --    35 O    1.606    34 C    1.088    17 O    1.086
    34   6 C    3.968 --    36 C    1.687    33 C    1.088    97 H    0.960
                            38 C    0.107
    35   8 O    1.981 --    33 C    1.606    17 O    0.143
    36   6 C    3.970 --    34 C    1.687    37 C    1.174    98 H    0.955
    37   6 C    3.984 --    38 C    1.750    36 C    1.174    99 H    0.957
    38   6 C    3.964 --    37 C    1.750    39 C    1.052   100 H    0.957
                            34 C    0.107
    39   6 C    3.984 --    38 C    1.052    40 C    0.974   102 H    0.951
                           101 H    0.928
    40   6 C    3.953 --    41 C    1.005    42 O    0.980    39 C    0.974
                           103 H    0.953
    41   6 C    3.976 --    43 C    1.843    40 C    1.005   104 H    0.962
                            45 C    0.117
    42   8 O    1.916 --    40 C    0.980   105 H    0.871
    43   6 C    3.990 --    41 C    1.843    44 C    1.113   106 H    0.961
    44   6 C    3.989 --    45 C    1.821    43 C    1.113   107 H    0.959
    45   6 C    3.982 --    44 C    1.821    46 C    1.032   108 H    0.965
                            41 C    0.117
    46   6 C    3.995 --    45 C    1.032    47 C    0.983   109 H    0.973
                           110 H    0.965
    47   6 C    3.987 --    48 C    1.007    46 C    0.983   111 H    0.975
                           112 H    0.964
    48   6 C    3.996 --    47 C    1.007    49 C    1.006   113 H    0.977
                           114 H    0.977
    49   6 C    3.996 --    50 C    1.021    48 C    1.006   115 H    0.978
                           116 H    0.977
    50   6 C    3.994 --    49 C    1.021   119 H    0.987   118 H    0.981
                           117 H    0.979
    51   8 O    2.099 --     1 C    1.073   120 H    0.832
    52   8 O    2.089 --     5 C    1.079   121 H    0.850
    53   6 C    3.922 --    27 O    0.983    54 C    0.955    58 O    0.952
                           122 H    0.945
    54   6 C    3.957 --    62 O    1.000    55 C    0.969    53 C    0.955
                           123 H    0.952
    55   6 C    3.968 --    61 O    1.006    54 C    0.969    56 C    0.964
                           124 H    0.957
    56   6 C    3.968 --    60 O    1.009    57 C    0.966    55 C    0.964
                           125 H    0.952
    57   6 C    3.937 --    59 C    0.981    56 C    0.966    58 O    0.949
                           126 H    0.942
    58   8 O    2.064 --    53 C    0.952    57 C    0.949
    59   6 C    3.949 --    63 O    1.005    57 C    0.981   127 H    0.964
                           128 H    0.963
    60   8 O    1.943 --    56 C    1.009   129 H    0.839
    61   8 O    1.930 --    55 C    1.006   130 H    0.849
    62   8 O    1.926 --    54 C    1.000   131 H    0.854
    63   8 O    1.946 --    59 C    1.005   132 H    0.854
    64   6 C    3.997 --    73 C    1.021    65 C    1.006   134 H    0.978
                           133 H    0.977
    65   6 C    3.994 --    66 C    1.010    64 C    1.006   136 H    0.970
                           135 H    0.963
    66   6 C    3.995 --    65 C    1.010    71 C    1.008   138 H    0.976
                           137 H    0.970
    67   6 C    3.969 --    68 C    1.694    31 C    1.093   139 H    0.945
                            70 C    0.108
    68   6 C    3.972 --    67 C    1.694    69 C    1.171   140 H    0.955
    69   6 C    3.985 --    70 C    1.760    68 C    1.171   141 H    0.952
    70   6 C    3.971 --    69 C    1.760    72 C    1.040   142 H    0.962
                            67 C    0.108
    71   6 C    3.985 --    66 C    1.008    72 C    0.980   143 H    0.975
                           144 H    0.973
    72   6 C    3.992 --    70 C    1.040    71 C    0.980   146 H    0.976
                           145 H    0.952
    73   6 C    3.994 --    64 C    1.021   149 H    0.987   147 H    0.984
                           148 H    0.980
    74   1 H    0.993 --     4 C    0.963
    75   1 H    0.994 --     6 C    0.960
    76   1 H    0.997 --     7 C    0.947
    77   1 H    0.998 --     8 C    0.959
    78   1 H    0.998 --     9 C    0.951
    79   1 H    0.993 --    10 C    0.954
    80   1 H    0.998 --    11 C    0.940
    81   1 H    0.998 --    13 C    0.968
    82   1 H    0.999 --    13 C    0.961
    83   1 H    0.878 --    14 O    0.864
    84   1 H    0.883 --    15 O    0.833
    85   1 H    0.994 --    18 C    0.966
    86   1 H    0.997 --    18 C    0.964
    87   1 H    0.893 --    19 O    0.851
    88   1 H    1.000 --    20 C    0.940
    89   1 H    0.997 --    22 C    0.951
    90   1 H    0.997 --    23 C    0.957
    91   1 H    0.992 --    24 C    0.944
    92   1 H    0.993 --    25 C    0.954
    93   1 H    0.875 --    26 O    0.853
    94   1 H    0.881 --    28 O    0.837
    95   1 H    0.994 --    29 C    0.958
    96   1 H    0.990 --    29 C    0.964
    97   1 H    0.993 --    34 C    0.960
    98   1 H    0.994 --    36 C    0.955
    99   1 H    0.994 --    37 C    0.957
   100   1 H    0.993 --    38 C    0.957
   101   1 H    0.977 --    39 C    0.928
   102   1 H    0.991 --    39 C    0.951
   103   1 H    0.998 --    40 C    0.953
   104   1 H    0.997 --    41 C    0.962
   105   1 H    0.885 --    42 O    0.871
   106   1 H    0.998 --    43 C    0.961
   107   1 H    0.998 --    44 C    0.959
   108   1 H    0.998 --    45 C    0.965
   109   1 H    0.998 --    46 C    0.973
   110   1 H    0.994 --    46 C    0.965
   111   1 H    0.999 --    47 C    0.975
   112   1 H    0.998 --    47 C    0.964
   113   1 H    0.999 --    48 C    0.977
   114   1 H    0.999 --    48 C    0.977
   115   1 H    0.999 --    49 C    0.978
   116   1 H    0.998 --    49 C    0.977
   117   1 H    0.997 --    50 C    0.979
   118   1 H    0.999 --    50 C    0.981
   119   1 H    0.999 --    50 C    0.987
   120   1 H    0.886 --    51 O    0.832
   121   1 H    0.869 --    52 O    0.850
   122   1 H    1.000 --    53 C    0.945
   123   1 H    0.996 --    54 C    0.952
   124   1 H    0.999 --    55 C    0.957
   125   1 H    0.998 --    56 C    0.952
   126   1 H    1.000 --    57 C    0.942
   127   1 H    0.991 --    59 C    0.964
   128   1 H    0.996 --    59 C    0.963
   129   1 H    0.885 --    60 O    0.839
   130   1 H    0.866 --    61 O    0.849
   131   1 H    0.871 --    62 O    0.854
   132   1 H    0.895 --    63 O    0.854
   133   1 H    0.999 --    64 C    0.977
   134   1 H    0.999 --    64 C    0.978
   135   1 H    0.998 --    65 C    0.963
   136   1 H    0.999 --    65 C    0.970
   137   1 H    0.997 --    66 C    0.970
   138   1 H    0.998 --    66 C    0.976
   139   1 H    0.993 --    67 C    0.945
   140   1 H    0.995 --    68 C    0.955
   141   1 H    0.994 --    69 C    0.952
   142   1 H    0.996 --    70 C    0.962
   143   1 H    0.997 --    71 C    0.975
   144   1 H    0.999 --    71 C    0.973
   145   1 H    0.993 --    72 C    0.952
   146   1 H    0.997 --    72 C    0.976
   147   1 H    0.999 --    73 C    0.984
   148   1 H    0.998 --    73 C    0.980
   149   1 H    0.999 --    73 C    0.987
 ---------------------------------------------------------------------------

Topologies differ in total number of bonds
Writing topology from bond orders to xtbtopo.mol

molecular dipole:
                 x           y           z       tot (Debye)
 q only:        1.656       2.918      -0.103
   full:        2.308       3.186      -0.139      10.004
molecular quadrupole (traceless):
                xx          xy          yy          xz          yz          zz
 q only:       74.836      24.987     -45.057      11.556      10.115     -29.779
  q+dip:       52.785      30.515     -42.057       8.752      12.376     -10.729
   full:       54.239      31.577     -41.235      11.001      13.398     -13.004


           -------------------------------------------------
          | TOTAL ENERGY             -235.530381417652 Eh   |
          | GRADIENT NORM               0.131670653179 Eh/α |
          | HOMO-LUMO GAP               1.461518039883 eV   |
           -------------------------------------------------

------------------------------------------------------------------------
 * finished run on 2026/06/19 at 18:52:14.786     
------------------------------------------------------------------------
 total:
 * wall-time:     0 d,  0 h,  0 min,  0.302 sec
 *  cpu-time:     0 d,  0 h,  0 min,  4.634 sec
 * ratio c/w:    15.358 speedup
 SCF:
 * wall-time:     0 d,  0 h,  0 min,  0.250 sec
 *  cpu-time:     0 d,  0 h,  0 min,  3.938 sec
 * ratio c/w:    15.763 speedup

normal termination of xtb
