      -----------------------------------------------------------      
     |                   =====================                   |     
     |                           x T B                           |     
     |                   =====================                   |     
     |                         S. Grimme                         |     
     |          Mulliken Center for Theoretical Chemistry        |     
     |                    University of Bonn                     |     
      -----------------------------------------------------------      

   * xtb version 6.7.1 (edcfbbe) compiled by 'albert@albert-system' on 2024-07-22

   xtb is free software: you can redistribute it and/or modify it under
   the terms of the GNU Lesser General Public License as published by
   the Free Software Foundation, either version 3 of the License, or
   (at your option) any later version.
   
   xtb is distributed in the hope that it will be useful,
   but WITHOUT ANY WARRANTY; without even the implied warranty of
   MERCHANTABILITY or FITNESS FOR A PARTICULAR PURPOSE.  See the
   GNU Lesser General Public License for more details.
   
   Cite this work as:
   * C. Bannwarth, E. Caldeweyher, S. Ehlert, A. Hansen, P. Pracht,
     J. Seibert, S. Spicher, S. Grimme, WIREs Comput. Mol. Sci., 2020, 11,
     e01493. DOI: 10.1002/wcms.1493
   
   for GFN2-xTB:
   * C. Bannwarth, S. Ehlert and S. Grimme., J. Chem. Theory Comput., 2019,
     15, 1652-1671. DOI: 10.1021/acs.jctc.8b01176
   for GFN1-xTB:
   * S. Grimme, C. Bannwarth, P. Shushkov, J. Chem. Theory Comput., 2017,
     13, 1989-2009. DOI: 10.1021/acs.jctc.7b00118
   for GFN0-xTB:
   * P. Pracht, E. Caldeweyher, S. Ehlert, S. Grimme, ChemRxiv, 2019, preprint.
     DOI: 10.26434/chemrxiv.8326202.v1
   for GFN-FF:
   * S. Spicher and S. Grimme, Angew. Chem. Int. Ed., 2020, 59, 15665-15673.
     DOI: 10.1002/anie.202004239
   
   for ALPB and GBSA implicit solvation:
   * S. Ehlert, M. Stahn, S. Spicher, S. Grimme, J. Chem. Theory Comput.,
     2021, 17, 4250-4261. DOI: 10.1021/acs.jctc.1c00471
   
   for ddCOSMO and CPCM-X implicit solvation:
   * M. Stahn, S. Ehlert, S. Grimme, J. Phys. Chem. A,
     2023, XX, XXXX-XXXX. DOI: 10.1021/acs.jpca.3c04382
   
   for DFT-D4:
   * E. Caldeweyher, C. Bannwarth and S. Grimme, J. Chem. Phys., 2017,
     147, 034112. DOI: 10.1063/1.4993215
   * E. Caldeweyher, S. Ehlert, A. Hansen, H. Neugebauer, S. Spicher,
     C. Bannwarth and S. Grimme, J. Chem. Phys., 2019, 150, 154122.
     DOI: 10.1063/1.5090222
   * E. Caldeweyher, J.-M. Mewes, S. Ehlert and S. Grimme, Phys. Chem. Chem. Phys.
     2020, 22, 8499-8512. DOI: 10.1039/D0CP00502A
   
   for sTDA-xTB:
   * S. Grimme and C. Bannwarth, J. Chem. Phys., 2016, 145, 054103.
     DOI: 10.1063/1.4959605
   
   in the mass-spec context:
   * V. Asgeirsson, C. Bauer and S. Grimme, Chem. Sci., 2017, 8, 4879.
     DOI: 10.1039/c7sc00601b
   * J. Koopman and S. Grimme, ACS Omega 2019, 4, 12, 15120-15133.
     DOI: 10.1021/acsomega.9b02011
   
   for metadynamics refer to:
   * S. Grimme, J. Chem. Theory Comput., 2019, 155, 2847-2862
     DOI: 10.1021/acs.jctc.9b00143
   
   for SPH calculations refer to:
   * S. Spicher and S. Grimme, J. Chem. Theory Comput., 2021, 17, 1701-1714
     DOI: 10.1021/acs.jctc.0c01306
   
   for ONIOM refer to:
   * C. Plett, A. Katbashev, S. Ehlert, S. Grimme, M. Bursch,
     Phys. Chem. Chem. Phys., 2023, 25, 17860-17868. DOI: 10.1039/D3CP02178E
   
   for DIPRO refer to:
   * J. Kohn, N. Gildemeister, S. Grimme, D. Fazzi, A. Hansen,
     J. Chem. Phys., 2023, just accepted.
   
   for PTB refer to:
   * S. Grimme, M. Mueller, A. Hansen, J. Chem. Phys., 2023, 158, 124111.
     DOI: 10.1063/5.0137838
   
   with help from (in alphabetical order)
   P. Atkinson, C. Bannwarth, F. Bohle, G. Brandenburg, E. Caldeweyher
   M. Checinski, S. Dohm, S. Ehlert, S. Ehrlich, I. Gerasimov, C. Hölzer
   A. Katbashev, J. Kohn, J. Koopman, C. Lavigne, S. Lehtola, F. März, M. Müller,
   F. Musil, H. Neugebauer, J. Pisarek, C. Plett, P. Pracht, F. Pultar,
   J. Seibert, P. Shushkov, S. Spicher, M. Stahn, M. Steiner, T. Strunk,
   J. Stückrath, T. Rose, and J. Unsleber
   
 * started run on 2026/06/19 at 18:52:13.846     
   ID    Z sym.   atoms
    1    6 C      1-11, 13, 18, 20, 22-25, 29, 31, 33, 34, 36-41, 43-50,
                  53-57, 59, 64-73
    2    8 O      12, 14-17, 19, 21, 26-28, 30, 32, 35, 42, 51, 52, 58, 60-63
    3    1 H      74-149

           -------------------------------------------------
          |                Calculation Setup                |
           -------------------------------------------------

          program call               : xtb PAPU-0071/conf01.xyz --gfn 2 --alpb octanol --chrg 0 --uhf 0 --namespace PAPU-0071/conf01_octanol
          hostname                   : cpu10
          calculation namespace      : PAPU-0071/conf01_octanol
          coordinate file            : PAPU-0071/conf01.xyz
          omp threads                :                    16


           -------------------------------------------------
          |                 G F N 2 - x T B                 |
           -------------------------------------------------

        Reference                      10.1021/acs.jctc.8b01176
      * Hamiltonian:
        H0-scaling (s, p, d)           1.850000    2.230000    2.230000
        zeta-weighting                 0.500000
      * Dispersion:
        s8                             2.700000
        a1                             0.520000
        a2                             5.000000
        s9                             5.000000
      * Repulsion:
        kExp                           1.500000    1.000000
        rExp                           1.000000
      * Coulomb:
        alpha                          2.000000
        third order                    shell-resolved
        anisotropic                    true
        a3                             3.000000
        a5                             4.000000
        cn-shift                       1.200000
        cn-exp                         4.000000
        max-rad                        5.000000

      * Solvation model:               ALPB
        Solvent                        octanol
        Parameter file                 internal GFN2-xTB/ALPB
        Dielectric constant                9.8629E+00
        Reference state                gsolv [1 M gas/solution]
        Free energy shift                  2.3397E-03 Eh       1.4682E+00 kcal/mol
        Temperature                        2.9815E+02 K
        Density                            8.3000E-01 kg/L
        Solvent mass                       1.3023E+02 g/mol
        Interaction kernel             P16
        Born radius scaling (c1)           1.5898E+00
        Born radii integrator          GBOBC
        Born offset                        0.0000E+00 a0       0.0000E+00 AA
        H-bond correction              true
        Ion screening                  false
        Surface tension                    1.0000E-05 Eh       1.5569E+01 dyn/cm
        Grid points                               230 per atom

          ...................................................
          :                      SETUP                      :
          :.................................................:
          :  # basis functions                 368          :
          :  # atomic orbitals                 368          :
          :  # shells                          222          :
          :  # electrons                       410          :
          :  max. iterations                   250          :
          :  Hamiltonian                  GFN2-xTB          :
          :  restarted?                      false          :
          :  GBSA solvation                   true          :
          :  PC potential                    false          :
          :  electronic temp.          300.0000000     K    :
          :  accuracy                    1.0000000          :
          :  -> integral cutoff          0.2500000E+02      :
          :  -> integral neglect         0.1000000E-07      :
          :  -> SCF convergence          0.1000000E-05 Eh   :
          :  -> wf. convergence          0.1000000E-03 e    :
          :  Broyden damping             0.4000000          :
          :  net charge                          0          :
          :  unpaired electrons                  0          :
          ...................................................

 iter      E             dE          RMSdq      gap      omega  full diag
   1   -237.7421790 -0.237742E+03  0.435E+00    2.32       0.0  T
   2   -237.9955984 -0.253419E+00  0.238E+00    1.61       1.0  T
   3   -237.9707444  0.248540E-01  0.111E+00    1.67       1.0  T
   4   -238.0175359 -0.467915E-01  0.354E-01    1.45       1.0  T
   5   -238.0272652 -0.972936E-02  0.137E-01    1.41       1.0  T
   6   -238.0284364 -0.117118E-02  0.609E-02    1.43       1.0  T
   7   -238.0285248 -0.884061E-04  0.267E-02    1.44       1.0  T
   8   -238.0285501 -0.253462E-04  0.103E-02    1.44       1.0  T
   9   -238.0285537 -0.357226E-05  0.465E-03    1.44       1.8  T
  10   -238.0285546 -0.917236E-06  0.246E-03    1.43       3.3  T
  11   -238.0285549 -0.262035E-06  0.123E-03    1.43       6.6  T
  12   -238.0285549 -0.381362E-07  0.478E-04    1.43      17.1  T
  13   -238.0285549 -0.993296E-08  0.244E-04    1.43      33.6  T

   *** convergence criteria satisfied after 13 iterations ***

         #    Occupation            Energy/Eh            Energy/eV
      -------------------------------------------------------------
         1        2.0000           -0.7883738             -21.4527
       ...           ...                  ...                  ...
       199        2.0000           -0.4103841             -11.1671
       200        2.0000           -0.4087899             -11.1237
       201        2.0000           -0.4081858             -11.1073
       202        2.0000           -0.3993904             -10.8680
       203        2.0000           -0.3913285             -10.6486
       204        2.0000           -0.3894953             -10.5987
       205        2.0000           -0.3792446             -10.3198 (HOMO)
       206                         -0.3265593              -8.8861 (LUMO)
       207                         -0.2997971              -8.1579
       208                         -0.2478104              -6.7433
       209                         -0.2417152              -6.5774
       210                         -0.2359427              -6.4203
       ...                                ...                  ...
       368                          0.6916767              18.8215
      -------------------------------------------------------------
                  HL-Gap            0.0526854 Eh            1.4336 eV
             Fermi-level           -0.3529019 Eh           -9.6030 eV

 SCC (total)                   0 d,  0 h,  0 min,  0.247 sec
 SCC setup                      ...        0 min,  0.003 sec (  1.276%)
 Dispersion                     ...        0 min,  0.004 sec (  1.657%)
 classical contributions        ...        0 min,  0.000 sec (  0.050%)
 integral evaluation            ...        0 min,  0.011 sec (  4.472%)
 iterations                     ...        0 min,  0.189 sec ( 76.441%)
 molecular gradient             ...        0 min,  0.039 sec ( 15.785%)
 printout                       ...        0 min,  0.001 sec (  0.303%)

         :::::::::::::::::::::::::::::::::::::::::::::::::::::
         ::                     SUMMARY                     ::
         :::::::::::::::::::::::::::::::::::::::::::::::::::::
         :: total energy            -235.530881534457 Eh    ::
         :: total w/o Gsasa/hb      -235.464132849642 Eh    ::
         :: gradient norm              0.130681162883 Eh/a0 ::
         :: HOMO-LUMO gap              1.433641578634 eV    ::
         ::.................................................::
         :: SCC energy              -238.015721335914 Eh    ::
         :: -> isotropic ES            0.530163766911 Eh    ::
         :: -> anisotropic ES         -0.028559954331 Eh    ::
         :: -> anisotropic XC          0.023815970532 Eh    ::
         :: -> dispersion             -0.194893095561 Eh    ::
         :: -> Gsolv                  -0.095656485861 Eh    ::
         ::    -> Gelec               -0.028907801046 Eh    ::
         ::    -> Gsasa               -0.029103311991 Eh    ::
         ::    -> Ghb                 -0.039985042200 Eh    ::
         ::    -> Gshift               0.002339669376 Eh    ::
         :: repulsion energy           2.484839801457 Eh    ::
         :: add. restraining           0.000000000000 Eh    ::
         :: total charge               0.000000000000 e     ::
         :::::::::::::::::::::::::::::::::::::::::::::::::::::

           -------------------------------------------------
          |                Property Printout                |
           -------------------------------------------------

    * Orbital Energies and Occupations

         #    Occupation            Energy/Eh            Energy/eV
      -------------------------------------------------------------
         1        2.0000           -0.7883738             -21.4527
       ...           ...                  ...                  ...
       193        2.0000           -0.4209640             -11.4550
       194        2.0000           -0.4188218             -11.3967
       195        2.0000           -0.4180773             -11.3765
       196        2.0000           -0.4150068             -11.2929
       197        2.0000           -0.4131446             -11.2422
       198        2.0000           -0.4126266             -11.2281
       199        2.0000           -0.4103841             -11.1671
       200        2.0000           -0.4087899             -11.1237
       201        2.0000           -0.4081858             -11.1073
       202        2.0000           -0.3993904             -10.8680
       203        2.0000           -0.3913285             -10.6486
       204        2.0000           -0.3894953             -10.5987
       205        2.0000           -0.3792446             -10.3198 (HOMO)
       206                         -0.3265593              -8.8861 (LUMO)
       207                         -0.2997971              -8.1579
       208                         -0.2478104              -6.7433
       209                         -0.2417152              -6.5774
       210                         -0.2359427              -6.4203
       211                         -0.2306935              -6.2775
       212                         -0.2170821              -5.9071
       213                         -0.1744930              -4.7482
       214                         -0.1571337              -4.2758
       215                         -0.1462439              -3.9795
       216                         -0.1138067              -3.0968
       ...                                ...                  ...
       368                          0.6916767              18.8215
      -------------------------------------------------------------
                  HL-Gap            0.0526854 Eh            1.4336 eV
             Fermi-level           -0.3529019 Eh           -9.6030 eV

     #   Z          covCN         q      C6AA      α(0)
     1   6 C        2.843     0.144    24.857     8.171
     2   6 C        2.969    -0.050    29.239     8.870
     3   6 C        2.961    -0.005    28.152     8.703
     4   6 C        2.932    -0.085    30.120     9.001
     5   6 C        2.838     0.152    24.696     8.144
     6   6 C        2.920    -0.102    30.570     9.067
     7   6 C        3.741     0.089    19.174     6.247
     8   6 C        3.718     0.089    19.224     6.263
     9   6 C        3.750     0.102    18.967     6.211
    10   6 C        3.743     0.093    19.111     6.237
    11   6 C        3.741     0.089    19.184     6.249
    12   8 O        1.694    -0.346    19.817     6.010
    13   6 C        3.683     0.072    19.575     6.335
    14   8 O        1.652    -0.495    22.784     6.444
    15   8 O        1.651    -0.493    22.747     6.438
    16   8 O        1.698    -0.328    19.485     5.960
    17   8 O        1.702    -0.297    18.941     5.876
    18   6 C        3.674     0.074    19.570     6.339
    19   8 O        1.652    -0.462    22.100     6.346
    20   6 C        3.635     0.246    17.130     5.956
    21   8 O        1.695    -0.362    20.114     6.055
    22   6 C        3.743     0.091    19.139     6.241
    23   6 C        3.723     0.078    19.379     6.287
    24   6 C        3.723     0.086    19.253     6.266
    25   6 C        3.749     0.092    19.124     6.237
    26   8 O        1.653    -0.464    22.130     6.350
    27   8 O        1.698    -0.317    19.299     5.931
    28   8 O        1.651    -0.483    22.538     6.409
    29   6 C        3.733     0.062    19.621     6.322
    30   8 O        1.704    -0.268    18.451     5.799
    31   6 C        2.753     0.353    21.012     7.506
    32   8 O        0.857    -0.482    23.396     6.485
    33   6 C        2.724     0.353    21.013     7.504
    34   6 C        2.896    -0.098    30.463     9.049
    35   8 O        0.857    -0.485    23.462     6.494
    36   6 C        2.903    -0.001    28.059     8.685
    37   6 C        2.898    -0.054    29.349     8.883
    38   6 C        2.895    -0.003    28.098     8.691
    39   6 C        3.805    -0.081    22.039     6.683
    40   6 C        3.726     0.117    18.762     6.184
    41   6 C        2.895    -0.074    29.855     8.959
    42   8 O        1.652    -0.501    22.910     6.461
    43   6 C        2.897    -0.044    29.103     8.845
    44   6 C        2.899    -0.058    29.452     8.898
    45   6 C        2.895    -0.040    28.986     8.827
    46   6 C        3.805    -0.065    21.752     6.640
    47   6 C        3.802    -0.064    21.729     6.637
    48   6 C        3.799    -0.061    21.675     6.629
    49   6 C        3.798    -0.054    21.542     6.608
    50   6 C        3.750    -0.114    22.755     6.803
    51   8 O        1.656    -0.430    21.437     6.250
    52   8 O        1.657    -0.432    21.471     6.255
    53   6 C        3.646     0.240    17.171     5.955
    54   6 C        3.722     0.087    19.241     6.264
    55   6 C        3.724     0.096    19.100     6.241
    56   6 C        3.723     0.088    19.229     6.262
    57   6 C        3.744     0.103    18.950     6.210
    58   8 O        1.696    -0.360    20.070     6.048
    59   6 C        3.674     0.065    19.709     6.362
    60   8 O        1.653    -0.462    22.093     6.345
    61   8 O        1.653    -0.473    22.317     6.377
    62   8 O        1.653    -0.483    22.524     6.407
    63   8 O        1.653    -0.473    22.328     6.379
    64   6 C        3.798    -0.052    21.516     6.605
    65   6 C        3.799    -0.064    21.738     6.638
    66   6 C        3.799    -0.064    21.733     6.638
    67   6 C        2.897    -0.100    30.516     9.057
    68   6 C        2.900     0.002    27.990     8.675
    69   6 C        2.900    -0.042    29.052     8.838
    70   6 C        2.894    -0.008    28.216     8.709
    71   6 C        3.799    -0.061    21.678     6.629
    72   6 C        3.805    -0.069    21.814     6.649
    73   6 C        3.750    -0.114    22.749     6.802
    74   1 H        0.926     0.072     2.063     2.246
    75   1 H        0.926     0.074     2.041     2.234
    76   1 H        0.924     0.070     2.087     2.259
    77   1 H        0.923     0.051     2.305     2.374
    78   1 H        0.924     0.044     2.393     2.419
    79   1 H        0.923     0.079     1.991     2.207
    80   1 H        0.924     0.043     2.409     2.427
    81   1 H        0.924     0.070     2.088     2.260
    82   1 H        0.924     0.051     2.311     2.378
    83   1 H        0.802     0.329     0.640     1.257
    84   1 H        0.803     0.345     0.601     1.217
    85   1 H        0.924     0.073     2.051     2.239
    86   1 H        0.924     0.043     2.406     2.426
    87   1 H        0.801     0.327     0.645     1.262
    88   1 H        0.924     0.011     2.871     2.650
    89   1 H        0.923     0.050     2.316     2.380
    90   1 H        0.923     0.057     2.229     2.335
    91   1 H        0.924     0.086     1.916     2.165
    92   1 H        0.924     0.082     1.956     2.187
    93   1 H        0.803     0.353     0.582     1.198
    94   1 H        0.802     0.345     0.601     1.218
    95   1 H        0.924     0.075     2.031     2.229
    96   1 H        0.924     0.094     1.842     2.122
    97   1 H        0.926     0.083     1.948     2.183
    98   1 H        0.926     0.080     1.982     2.202
    99   1 H        0.926     0.076     2.017     2.221
   100   1 H        0.926     0.083     1.947     2.182
   101   1 H        0.924     0.105     1.744     2.065
   102   1 H        0.924     0.086     1.923     2.169
   103   1 H        0.923     0.034     2.533     2.489
   104   1 H        0.926     0.052     2.299     2.371
   105   1 H        0.804     0.338     0.616     1.233
   106   1 H        0.926     0.046     2.365     2.405
   107   1 H        0.926     0.047     2.357     2.401
   108   1 H        0.926     0.049     2.327     2.385
   109   1 H        0.924     0.041     2.434     2.440
   110   1 H        0.924     0.045     2.381     2.413
   111   1 H        0.924     0.029     2.596     2.520
   112   1 H        0.924     0.048     2.344     2.394
   113   1 H        0.924     0.031     2.574     2.509
   114   1 H        0.924     0.034     2.526     2.486
   115   1 H        0.924     0.026     2.643     2.542
   116   1 H        0.923     0.031     2.567     2.505
   117   1 H        0.924     0.051     2.306     2.375
   118   1 H        0.924     0.027     2.627     2.534
   119   1 H        0.924     0.034     2.530     2.487
   120   1 H        0.803     0.333     0.629     1.246
   121   1 H        0.804     0.361     0.562     1.178
   122   1 H        0.923    -0.001     3.072     2.741
   123   1 H        0.924     0.063     2.162     2.300
   124   1 H        0.923     0.024     2.680     2.560
   125   1 H        0.923     0.043     2.407     2.426
   126   1 H        0.924     0.005     2.969     2.695
   127   1 H        0.924     0.092     1.857     2.131
   128   1 H        0.924     0.058     2.226     2.333
   129   1 H        0.803     0.339     0.614     1.231
   130   1 H        0.804     0.366     0.552     1.167
   131   1 H        0.804     0.358     0.569     1.185
   132   1 H        0.802     0.324     0.653     1.270
   133   1 H        0.923     0.023     2.692     2.566
   134   1 H        0.924     0.030     2.591     2.517
   135   1 H        0.924     0.035     2.518     2.481
   136   1 H        0.924     0.031     2.572     2.508
   137   1 H        0.924     0.039     2.461     2.454
   138   1 H        0.924     0.038     2.471     2.458
   139   1 H        0.926     0.086     1.918     2.166
   140   1 H        0.926     0.075     2.026     2.226
   141   1 H        0.926     0.058     2.226     2.333
   142   1 H        0.926     0.063     2.161     2.299
   143   1 H        0.923     0.046     2.374     2.410
   144   1 H        0.924     0.034     2.530     2.487
   145   1 H        0.924     0.069     2.098     2.265
   146   1 H        0.924     0.056     2.245     2.343
   147   1 H        0.924     0.037     2.495     2.470
   148   1 H        0.924     0.046     2.366     2.405
   149   1 H        0.924     0.029     2.595     2.519

 Mol. C6AA /au·bohr⁶  :     203725.052133
 Mol. C8AA /au·bohr⁸  :    4579949.074934
 Mol. α(0) /au        :        675.403125


Wiberg/Mayer (AO) data.
largest (>0.10) Wiberg bond orders for each atom

 ---------------------------------------------------------------------------
     #   Z sym  total        # sym  WBO       # sym  WBO       # sym  WBO
 ---------------------------------------------------------------------------
     1   6 C    3.942 --     6 C    1.392     2 C    1.327    51 O    1.072
     2   6 C    3.967 --     3 C    1.390     1 C    1.327     7 C    0.989
     3   6 C    3.986 --     4 C    1.420     2 C    1.390    13 C    1.003
     4   6 C    3.980 --     3 C    1.420     5 C    1.363    74 H    0.964
     5   6 C    3.945 --     6 C    1.376     4 C    1.363    52 O    1.080
     6   6 C    3.977 --     1 C    1.392     5 C    1.376    75 H    0.960
     7   6 C    3.928 --     2 C    0.989     8 C    0.949    12 O    0.944
                            76 H    0.937
     8   6 C    3.948 --    15 O    0.988     9 C    0.965    77 H    0.958
                             7 C    0.949
     9   6 C    3.930 --    10 C    0.969     8 C    0.965    78 H    0.951
                            17 O    0.939
    10   6 C    3.938 --     9 C    0.969    16 O    0.966    11 C    0.959
                            79 H    0.954
    11   6 C    3.945 --    18 C    0.979    12 O    0.964    10 C    0.959
                            80 H    0.939
    12   8 O    2.084 --    11 C    0.964     7 C    0.944
    13   6 C    3.952 --     3 C    1.003    14 O    0.995    82 H    0.959
                            81 H    0.948
    14   8 O    1.947 --    13 C    0.995    83 H    0.841
    15   8 O    1.946 --     8 C    0.988    84 H    0.829
    16   8 O    2.089 --    20 C    0.981    10 C    0.966
    17   8 O    2.262 --    33 C    1.085     9 C    0.939    35 O    0.142
    18   6 C    3.960 --    19 O    1.015    11 C    0.979    85 H    0.965
                            86 H    0.963
    19   8 O    1.942 --    18 C    1.015    87 H    0.851
    20   6 C    3.922 --    16 O    0.981    21 O    0.953    25 C    0.953
                            88 H    0.940
    21   8 O    2.056 --    20 C    0.953    22 C    0.949
    22   6 C    3.932 --    29 C    0.972    23 C    0.970    89 H    0.952
                            21 O    0.949
    23   6 C    3.962 --    28 O    0.998    22 C    0.970    24 C    0.966
                            90 H    0.956
    24   6 C    3.960 --    26 O    1.009    23 C    0.966    25 C    0.958
                            91 H    0.944
    25   6 C    3.937 --    27 O    0.967    24 C    0.958    92 H    0.954
                            20 C    0.953
    26   8 O    1.952 --    24 C    1.009    93 H    0.853
    27   8 O    2.088 --    53 C    0.984    25 C    0.967
    28   8 O    1.929 --    23 C    0.998    94 H    0.838
    29   6 C    3.932 --    30 O    0.973    22 C    0.972    96 H    0.963
                            95 H    0.958
    30   8 O    2.278 --    31 C    1.083    29 C    0.973    32 O    0.141
    31   6 C    3.899 --    32 O    1.624    67 C    1.085    30 O    1.083
    32   8 O    1.984 --    31 C    1.624    30 O    0.141
    33   6 C    3.895 --    35 O    1.605    34 C    1.089    17 O    1.085
    34   6 C    3.967 --    36 C    1.685    33 C    1.089    97 H    0.960
                            38 C    0.107
    35   8 O    1.982 --    33 C    1.605    17 O    0.142
    36   6 C    3.970 --    34 C    1.685    37 C    1.174    98 H    0.955
    37   6 C    3.984 --    38 C    1.748    36 C    1.174    99 H    0.957
    38   6 C    3.964 --    37 C    1.748    39 C    1.053   100 H    0.957
                            34 C    0.107
    39   6 C    3.984 --    38 C    1.053    40 C    0.974   102 H    0.951
                           101 H    0.927
    40   6 C    3.953 --    41 C    1.005    42 O    0.980    39 C    0.974
                           103 H    0.953
    41   6 C    3.976 --    43 C    1.843    40 C    1.005   104 H    0.962
                            45 C    0.118
    42   8 O    1.916 --    40 C    0.980   105 H    0.871
    43   6 C    3.990 --    41 C    1.843    44 C    1.113   106 H    0.961
    44   6 C    3.989 --    45 C    1.822    43 C    1.113   107 H    0.959
    45   6 C    3.982 --    44 C    1.822    46 C    1.032   108 H    0.965
                            41 C    0.118
    46   6 C    3.995 --    45 C    1.032    47 C    0.983   109 H    0.973
                           110 H    0.965
    47   6 C    3.987 --    48 C    1.007    46 C    0.983   111 H    0.975
                           112 H    0.964
    48   6 C    3.996 --    47 C    1.007    49 C    1.006   113 H    0.977
                           114 H    0.977
    49   6 C    3.996 --    50 C    1.021    48 C    1.006   115 H    0.978
                           116 H    0.977
    50   6 C    3.994 --    49 C    1.021   119 H    0.987   118 H    0.982
                           117 H    0.979
    51   8 O    2.097 --     1 C    1.072   120 H    0.834
    52   8 O    2.089 --     5 C    1.080   121 H    0.850
    53   6 C    3.922 --    27 O    0.984    54 C    0.955    58 O    0.953
                           122 H    0.945
    54   6 C    3.957 --    62 O    1.000    55 C    0.969    53 C    0.955
                           123 H    0.952
    55   6 C    3.968 --    61 O    1.006    54 C    0.969    56 C    0.964
                           124 H    0.957
    56   6 C    3.968 --    60 O    1.009    57 C    0.966    55 C    0.964
                           125 H    0.952
    57   6 C    3.937 --    59 C    0.981    56 C    0.966    58 O    0.950
                           126 H    0.942
    58   8 O    2.064 --    53 C    0.953    57 C    0.950
    59   6 C    3.949 --    63 O    1.005    57 C    0.981   127 H    0.964
                           128 H    0.963
    60   8 O    1.943 --    56 C    1.009   129 H    0.840
    61   8 O    1.930 --    55 C    1.006   130 H    0.849
    62   8 O    1.926 --    54 C    1.000   131 H    0.854
    63   8 O    1.945 --    59 C    1.005   132 H    0.855
    64   6 C    3.997 --    73 C    1.021    65 C    1.006   134 H    0.977
                           133 H    0.976
    65   6 C    3.994 --    66 C    1.010    64 C    1.006   136 H    0.970
                           135 H    0.964
    66   6 C    3.995 --    65 C    1.010    71 C    1.008   138 H    0.975
                           137 H    0.970
    67   6 C    3.971 --    68 C    1.702    31 C    1.085   139 H    0.946
                            70 C    0.110
    68   6 C    3.973 --    67 C    1.702    69 C    1.169   140 H    0.955
    69   6 C    3.987 --    70 C    1.763    68 C    1.169   141 H    0.955
    70   6 C    3.971 --    69 C    1.763    72 C    1.040   142 H    0.962
                            67 C    0.110
    71   6 C    3.986 --    66 C    1.008    72 C    0.983   143 H    0.975
                           144 H    0.973
    72   6 C    3.991 --    70 C    1.040    71 C    0.983   146 H    0.976
                           145 H    0.948
    73   6 C    3.994 --    64 C    1.021   149 H    0.987   147 H    0.984
                           148 H    0.980
    74   1 H    0.994 --     4 C    0.964
    75   1 H    0.994 --     6 C    0.960
    76   1 H    0.995 --     7 C    0.937
    77   1 H    0.997 --     8 C    0.958
    78   1 H    0.998 --     9 C    0.951
    79   1 H    0.993 --    10 C    0.954
    80   1 H    0.998 --    11 C    0.939
    81   1 H    0.995 --    13 C    0.948
    82   1 H    0.997 --    13 C    0.959
    83   1 H    0.892 --    14 O    0.841
    84   1 H    0.881 --    15 O    0.829
    85   1 H    0.995 --    18 C    0.965
    86   1 H    0.997 --    18 C    0.963
    87   1 H    0.893 --    19 O    0.851
    88   1 H    1.000 --    20 C    0.940
    89   1 H    0.997 --    22 C    0.952
    90   1 H    0.996 --    23 C    0.956
    91   1 H    0.993 --    24 C    0.944
    92   1 H    0.993 --    25 C    0.954
    93   1 H    0.875 --    26 O    0.853
    94   1 H    0.881 --    28 O    0.838
    95   1 H    0.994 --    29 C    0.958
    96   1 H    0.990 --    29 C    0.963
    97   1 H    0.993 --    34 C    0.960
    98   1 H    0.994 --    36 C    0.955
    99   1 H    0.994 --    37 C    0.957
   100   1 H    0.993 --    38 C    0.957
   101   1 H    0.977 --    39 C    0.927
   102   1 H    0.991 --    39 C    0.951
   103   1 H    0.998 --    40 C    0.953
   104   1 H    0.997 --    41 C    0.962
   105   1 H    0.885 --    42 O    0.871
   106   1 H    0.998 --    43 C    0.961
   107   1 H    0.998 --    44 C    0.959
   108   1 H    0.998 --    45 C    0.965
   109   1 H    0.998 --    46 C    0.973
   110   1 H    0.995 --    46 C    0.965
   111   1 H    0.999 --    47 C    0.975
   112   1 H    0.998 --    47 C    0.964
   113   1 H    0.999 --    48 C    0.977
   114   1 H    0.999 --    48 C    0.977
   115   1 H    0.999 --    49 C    0.978
   116   1 H    0.998 --    49 C    0.977
   117   1 H    0.997 --    50 C    0.979
   118   1 H    0.999 --    50 C    0.982
   119   1 H    0.999 --    50 C    0.987
   120   1 H    0.889 --    51 O    0.834
   121   1 H    0.869 --    52 O    0.850
   122   1 H    1.000 --    53 C    0.945
   123   1 H    0.996 --    54 C    0.952
   124   1 H    0.999 --    55 C    0.957
   125   1 H    0.998 --    56 C    0.952
   126   1 H    1.000 --    57 C    0.942
   127   1 H    0.991 --    59 C    0.964
   128   1 H    0.996 --    59 C    0.963
   129   1 H    0.885 --    60 O    0.840
   130   1 H    0.866 --    61 O    0.849
   131   1 H    0.871 --    62 O    0.854
   132   1 H    0.895 --    63 O    0.855
   133   1 H    0.999 --    64 C    0.976
   134   1 H    0.999 --    64 C    0.977
   135   1 H    0.998 --    65 C    0.964
   136   1 H    0.999 --    65 C    0.970
   137   1 H    0.997 --    66 C    0.970
   138   1 H    0.998 --    66 C    0.975
   139   1 H    0.993 --    67 C    0.946
   140   1 H    0.994 --    68 C    0.955
   141   1 H    0.997 --    69 C    0.955
   142   1 H    0.996 --    70 C    0.962
   143   1 H    0.997 --    71 C    0.975
   144   1 H    0.999 --    71 C    0.973
   145   1 H    0.992 --    72 C    0.948
   146   1 H    0.997 --    72 C    0.976
   147   1 H    0.999 --    73 C    0.984
   148   1 H    0.998 --    73 C    0.980
   149   1 H    0.999 --    73 C    0.987
 ---------------------------------------------------------------------------

Topologies differ in total number of bonds
Writing topology from bond orders to xtbtopo.mol

molecular dipole:
                 x           y           z       tot (Debye)
 q only:        1.348       2.803       0.733
   full:        1.886       3.134       0.911       9.581
molecular quadrupole (traceless):
                xx          xy          yy          xz          yz          zz
 q only:       85.540      27.107     -41.969       5.568      13.382     -43.571
  q+dip:       65.721      33.113     -37.223       1.310      17.340     -28.498
   full:       68.015      33.536     -36.909       3.425      17.783     -31.106


           -------------------------------------------------
          | TOTAL ENERGY             -235.530881534457 Eh   |
          | GRADIENT NORM               0.130681162883 Eh/α |
          | HOMO-LUMO GAP               1.433641578634 eV   |
           -------------------------------------------------

------------------------------------------------------------------------
 * finished run on 2026/06/19 at 18:52:14.144     
------------------------------------------------------------------------
 total:
 * wall-time:     0 d,  0 h,  0 min,  0.297 sec
 *  cpu-time:     0 d,  0 h,  0 min,  4.556 sec
 * ratio c/w:    15.316 speedup
 SCF:
 * wall-time:     0 d,  0 h,  0 min,  0.248 sec
 *  cpu-time:     0 d,  0 h,  0 min,  3.908 sec
 * ratio c/w:    15.741 speedup

normal termination of xtb
