      -----------------------------------------------------------      
     |                   =====================                   |     
     |                           x T B                           |     
     |                   =====================                   |     
     |                         S. Grimme                         |     
     |          Mulliken Center for Theoretical Chemistry        |     
     |                    University of Bonn                     |     
      -----------------------------------------------------------      

   * xtb version 6.7.1 (edcfbbe) compiled by 'albert@albert-system' on 2024-07-22

   xtb is free software: you can redistribute it and/or modify it under
   the terms of the GNU Lesser General Public License as published by
   the Free Software Foundation, either version 3 of the License, or
   (at your option) any later version.
   
   xtb is distributed in the hope that it will be useful,
   but WITHOUT ANY WARRANTY; without even the implied warranty of
   MERCHANTABILITY or FITNESS FOR A PARTICULAR PURPOSE.  See the
   GNU Lesser General Public License for more details.
   
   Cite this work as:
   * C. Bannwarth, E. Caldeweyher, S. Ehlert, A. Hansen, P. Pracht,
     J. Seibert, S. Spicher, S. Grimme, WIREs Comput. Mol. Sci., 2020, 11,
     e01493. DOI: 10.1002/wcms.1493
   
   for GFN2-xTB:
   * C. Bannwarth, S. Ehlert and S. Grimme., J. Chem. Theory Comput., 2019,
     15, 1652-1671. DOI: 10.1021/acs.jctc.8b01176
   for GFN1-xTB:
   * S. Grimme, C. Bannwarth, P. Shushkov, J. Chem. Theory Comput., 2017,
     13, 1989-2009. DOI: 10.1021/acs.jctc.7b00118
   for GFN0-xTB:
   * P. Pracht, E. Caldeweyher, S. Ehlert, S. Grimme, ChemRxiv, 2019, preprint.
     DOI: 10.26434/chemrxiv.8326202.v1
   for GFN-FF:
   * S. Spicher and S. Grimme, Angew. Chem. Int. Ed., 2020, 59, 15665-15673.
     DOI: 10.1002/anie.202004239
   
   for ALPB and GBSA implicit solvation:
   * S. Ehlert, M. Stahn, S. Spicher, S. Grimme, J. Chem. Theory Comput.,
     2021, 17, 4250-4261. DOI: 10.1021/acs.jctc.1c00471
   
   for ddCOSMO and CPCM-X implicit solvation:
   * M. Stahn, S. Ehlert, S. Grimme, J. Phys. Chem. A,
     2023, XX, XXXX-XXXX. DOI: 10.1021/acs.jpca.3c04382
   
   for DFT-D4:
   * E. Caldeweyher, C. Bannwarth and S. Grimme, J. Chem. Phys., 2017,
     147, 034112. DOI: 10.1063/1.4993215
   * E. Caldeweyher, S. Ehlert, A. Hansen, H. Neugebauer, S. Spicher,
     C. Bannwarth and S. Grimme, J. Chem. Phys., 2019, 150, 154122.
     DOI: 10.1063/1.5090222
   * E. Caldeweyher, J.-M. Mewes, S. Ehlert and S. Grimme, Phys. Chem. Chem. Phys.
     2020, 22, 8499-8512. DOI: 10.1039/D0CP00502A
   
   for sTDA-xTB:
   * S. Grimme and C. Bannwarth, J. Chem. Phys., 2016, 145, 054103.
     DOI: 10.1063/1.4959605
   
   in the mass-spec context:
   * V. Asgeirsson, C. Bauer and S. Grimme, Chem. Sci., 2017, 8, 4879.
     DOI: 10.1039/c7sc00601b
   * J. Koopman and S. Grimme, ACS Omega 2019, 4, 12, 15120-15133.
     DOI: 10.1021/acsomega.9b02011
   
   for metadynamics refer to:
   * S. Grimme, J. Chem. Theory Comput., 2019, 155, 2847-2862
     DOI: 10.1021/acs.jctc.9b00143
   
   for SPH calculations refer to:
   * S. Spicher and S. Grimme, J. Chem. Theory Comput., 2021, 17, 1701-1714
     DOI: 10.1021/acs.jctc.0c01306
   
   for ONIOM refer to:
   * C. Plett, A. Katbashev, S. Ehlert, S. Grimme, M. Bursch,
     Phys. Chem. Chem. Phys., 2023, 25, 17860-17868. DOI: 10.1039/D3CP02178E
   
   for DIPRO refer to:
   * J. Kohn, N. Gildemeister, S. Grimme, D. Fazzi, A. Hansen,
     J. Chem. Phys., 2023, just accepted.
   
   for PTB refer to:
   * S. Grimme, M. Mueller, A. Hansen, J. Chem. Phys., 2023, 158, 124111.
     DOI: 10.1063/5.0137838
   
   with help from (in alphabetical order)
   P. Atkinson, C. Bannwarth, F. Bohle, G. Brandenburg, E. Caldeweyher
   M. Checinski, S. Dohm, S. Ehlert, S. Ehrlich, I. Gerasimov, C. Hölzer
   A. Katbashev, J. Kohn, J. Koopman, C. Lavigne, S. Lehtola, F. März, M. Müller,
   F. Musil, H. Neugebauer, J. Pisarek, C. Plett, P. Pracht, F. Pultar,
   J. Seibert, P. Shushkov, S. Spicher, M. Stahn, M. Steiner, T. Strunk,
   J. Stückrath, T. Rose, and J. Unsleber
   
 * started run on 2026/06/19 at 18:52:56.548     
   ID    Z sym.   atoms
    1    6 C      1-11, 13, 18, 20, 22-25, 29, 31, 33, 34, 36-41, 43-50,
                  53-57, 59, 64-75, 77-80
    2    8 O      12, 14-17, 19, 21, 26-28, 30, 32, 35, 42, 51, 52, 58,
                  60-63, 76
    3    1 H      81-156

           -------------------------------------------------
          |                Calculation Setup                |
           -------------------------------------------------

          program call               : xtb PAPU-0086/conf05.xyz --gfn 2 --alpb water --chrg 0 --uhf 0 --namespace PAPU-0086/conf05_water
          hostname                   : cpu10
          calculation namespace      : PAPU-0086/conf05_water
          coordinate file            : PAPU-0086/conf05.xyz
          omp threads                :                    16


           -------------------------------------------------
          |                 G F N 2 - x T B                 |
           -------------------------------------------------

        Reference                      10.1021/acs.jctc.8b01176
      * Hamiltonian:
        H0-scaling (s, p, d)           1.850000    2.230000    2.230000
        zeta-weighting                 0.500000
      * Dispersion:
        s8                             2.700000
        a1                             0.520000
        a2                             5.000000
        s9                             5.000000
      * Repulsion:
        kExp                           1.500000    1.000000
        rExp                           1.000000
      * Coulomb:
        alpha                          2.000000
        third order                    shell-resolved
        anisotropic                    true
        a3                             3.000000
        a5                             4.000000
        cn-shift                       1.200000
        cn-exp                         4.000000
        max-rad                        5.000000

      * Solvation model:               ALPB
        Solvent                        water
        Parameter file                 internal GFN2-xTB/ALPB
        Dielectric constant                8.0200E+01
        Reference state                gsolv [1 M gas/solution]
        Free energy shift                  1.0808E-03 Eh       6.7819E-01 kcal/mol
        Temperature                        2.9815E+02 K
        Density                            1.0000E+00 kg/L
        Solvent mass                       1.8000E+01 g/mol
        Interaction kernel             P16
        Born radius scaling (c1)           1.4744E+00
        Born radii integrator          GBOBC
        Born offset                        0.0000E+00 a0       0.0000E+00 AA
        H-bond correction              true
        Ion screening                  false
        Surface tension                    1.0000E-05 Eh       1.5569E+01 dyn/cm
        Grid points                               230 per atom

          ...................................................
          :                      SETUP                      :
          :.................................................:
          :  # basis functions                 396          :
          :  # atomic orbitals                 396          :
          :  # shells                          236          :
          :  # electrons                       440          :
          :  max. iterations                   250          :
          :  Hamiltonian                  GFN2-xTB          :
          :  restarted?                      false          :
          :  GBSA solvation                   true          :
          :  PC potential                    false          :
          :  electronic temp.          300.0000000     K    :
          :  accuracy                    1.0000000          :
          :  -> integral cutoff          0.2500000E+02      :
          :  -> integral neglect         0.1000000E-07      :
          :  -> SCF convergence          0.1000000E-05 Eh   :
          :  -> wf. convergence          0.1000000E-03 e    :
          :  Broyden damping             0.4000000          :
          :  net charge                          0          :
          :  unpaired electrons                  0          :
          ...................................................

 iter      E             dE          RMSdq      gap      omega  full diag
   1   -254.9732758 -0.254973E+03  0.445E+00    2.18       0.0  T
   2   -255.2370803 -0.263805E+00  0.242E+00    1.81       1.0  T
   3   -255.2133420  0.237383E-01  0.104E+00    1.88       1.0  T
   4   -255.2565436 -0.432016E-01  0.357E-01    1.64       1.0  T
   5   -255.2660348 -0.949116E-02  0.140E-01    1.63       1.0  T
   6   -255.2671100 -0.107521E-02  0.673E-02    1.63       1.0  T
   7   -255.2672271 -0.117165E-03  0.306E-02    1.64       1.0  T
   8   -255.2672681 -0.409271E-04  0.120E-02    1.64       1.0  T
   9   -255.2672730 -0.497148E-05  0.635E-03    1.64       1.3  T
  10   -255.2672747 -0.170315E-05  0.352E-03    1.64       2.3  T
  11   -255.2672753 -0.567382E-06  0.180E-03    1.63       4.5  T
  12   -255.2672754 -0.104062E-06  0.802E-04    1.63      10.0  T
  13   -255.2672754 -0.324908E-07  0.394E-04    1.63      20.3  T

   *** convergence criteria satisfied after 13 iterations ***

         #    Occupation            Energy/Eh            Energy/eV
      -------------------------------------------------------------
         1        2.0000           -0.7714666             -20.9927
       ...           ...                  ...                  ...
       214        2.0000           -0.4016079             -10.9283
       215        2.0000           -0.3977972             -10.8246
       216        2.0000           -0.3946249             -10.7383
       217        2.0000           -0.3928800             -10.6908
       218        2.0000           -0.3833431             -10.4313
       219        2.0000           -0.3829045             -10.4194
       220        2.0000           -0.3621297              -9.8541 (HOMO)
       221                         -0.3021000              -8.2206 (LUMO)
       222                         -0.2926752              -7.9641
       223                         -0.2380120              -6.4766
       224                         -0.2376416              -6.4666
       225                         -0.2335736              -6.3559
       ...                                ...                  ...
       396                          0.6880573              18.7230
      -------------------------------------------------------------
                  HL-Gap            0.0600297 Eh            1.6335 eV
             Fermi-level           -0.3321148 Eh           -9.0373 eV

 SCC (total)                   0 d,  0 h,  0 min,  0.295 sec
 SCC setup                      ...        0 min,  0.004 sec (  1.202%)
 Dispersion                     ...        0 min,  0.005 sec (  1.625%)
 classical contributions        ...        0 min,  0.000 sec (  0.044%)
 integral evaluation            ...        0 min,  0.013 sec (  4.420%)
 iterations                     ...        0 min,  0.229 sec ( 77.717%)
 molecular gradient             ...        0 min,  0.043 sec ( 14.667%)
 printout                       ...        0 min,  0.001 sec (  0.310%)

         :::::::::::::::::::::::::::::::::::::::::::::::::::::
         ::                     SUMMARY                     ::
         :::::::::::::::::::::::::::::::::::::::::::::::::::::
         :: total energy            -252.472904967433 Eh    ::
         :: total w/o Gsasa/hb      -252.441790610285 Eh    ::
         :: gradient norm              0.123231702526 Eh/a0 ::
         :: HOMO-LUMO gap              1.633492565702 eV    ::
         ::.................................................::
         :: SCC energy              -255.252338101519 Eh    ::
         :: -> isotropic ES            0.570584760277 Eh    ::
         :: -> anisotropic ES         -0.022879211359 Eh    ::
         :: -> anisotropic XC          0.028336569805 Eh    ::
         :: -> dispersion             -0.210832883621 Eh    ::
         :: -> Gsolv                  -0.086146639108 Eh    ::
         ::    -> Gelec               -0.055032281959 Eh    ::
         ::    -> Gsasa                0.008028838912 Eh    ::
         ::    -> Ghb                 -0.040223955759 Eh    ::
         ::    -> Gshift               0.001080759698 Eh    ::
         :: repulsion energy           2.779433134086 Eh    ::
         :: add. restraining           0.000000000000 Eh    ::
         :: total charge              -0.000000000000 e     ::
         :::::::::::::::::::::::::::::::::::::::::::::::::::::

           -------------------------------------------------
          |                Property Printout                |
           -------------------------------------------------

    * Orbital Energies and Occupations

         #    Occupation            Energy/Eh            Energy/eV
      -------------------------------------------------------------
         1        2.0000           -0.7714666             -20.9927
       ...           ...                  ...                  ...
       208        2.0000           -0.4162684             -11.3272
       209        2.0000           -0.4139880             -11.2652
       210        2.0000           -0.4085146             -11.1162
       211        2.0000           -0.4063242             -11.0566
       212        2.0000           -0.4062281             -11.0540
       213        2.0000           -0.4048969             -11.0178
       214        2.0000           -0.4016079             -10.9283
       215        2.0000           -0.3977972             -10.8246
       216        2.0000           -0.3946249             -10.7383
       217        2.0000           -0.3928800             -10.6908
       218        2.0000           -0.3833431             -10.4313
       219        2.0000           -0.3829045             -10.4194
       220        2.0000           -0.3621297              -9.8541 (HOMO)
       221                         -0.3021000              -8.2206 (LUMO)
       222                         -0.2926752              -7.9641
       223                         -0.2380120              -6.4766
       224                         -0.2376416              -6.4666
       225                         -0.2335736              -6.3559
       226                         -0.2300670              -6.2604
       227                         -0.2231341              -6.0718
       228                         -0.2218342              -6.0364
       229                         -0.2187420              -5.9523
       230                         -0.1889605              -5.1419
       231                         -0.1494439              -4.0666
       ...                                ...                  ...
       396                          0.6880573              18.7230
      -------------------------------------------------------------
                  HL-Gap            0.0600297 Eh            1.6335 eV
             Fermi-level           -0.3321148 Eh           -9.0373 eV

     #   Z          covCN         q      C6AA      α(0)
     1   6 C        2.841     0.146    24.818     8.164
     2   6 C        2.971    -0.050    29.237     8.869
     3   6 C        2.964    -0.004    28.110     8.696
     4   6 C        2.929    -0.088    30.194     9.011
     5   6 C        2.836     0.146    24.827     8.165
     6   6 C        2.924    -0.076    29.897     8.967
     7   6 C        3.742     0.106    18.908     6.204
     8   6 C        3.718     0.096    19.109     6.244
     9   6 C        3.774     0.117    18.692     6.160
    10   6 C        3.744     0.102    18.967     6.213
    11   6 C        3.736     0.097    19.065     6.231
    12   8 O        1.695    -0.331    19.540     5.968
    13   6 C        3.681     0.076    19.507     6.325
    14   8 O        1.652    -0.496    22.804     6.446
    15   8 O        1.651    -0.481    22.489     6.402
    16   8 O        1.697    -0.329    19.503     5.962
    17   8 O        1.703    -0.290    18.826     5.858
    18   6 C        3.674     0.073    19.589     6.342
    19   8 O        1.654    -0.477    22.399     6.389
    20   6 C        3.644     0.242    17.154     5.953
    21   8 O        1.696    -0.357    20.023     6.041
    22   6 C        3.743     0.112    18.814     6.188
    23   6 C        3.721     0.091    19.172     6.253
    24   6 C        3.722     0.096    19.098     6.241
    25   6 C        3.733     0.092    19.146     6.245
    26   8 O        1.652    -0.479    22.448     6.396
    27   8 O        1.697    -0.336    19.642     5.984
    28   8 O        1.653    -0.493    22.737     6.437
    29   6 C        3.736     0.071    19.473     6.297
    30   8 O        1.704    -0.269    18.465     5.802
    31   6 C        2.756     0.347    21.102     7.522
    32   8 O        0.857    -0.477    23.279     6.469
    33   6 C        2.748     0.353    21.006     7.505
    34   6 C        2.895    -0.087    30.174     9.006
    35   8 O        0.857    -0.500    23.783     6.539
    36   6 C        2.903     0.002    27.993     8.675
    37   6 C        2.897    -0.036    28.896     8.814
    38   6 C        2.897    -0.003    28.110     8.693
    39   6 C        3.806    -0.068    21.798     6.646
    40   6 C        3.729     0.122    18.682     6.171
    41   6 C        2.894    -0.073    29.827     8.954
    42   8 O        1.652    -0.512    23.152     6.495
    43   6 C        2.901    -0.035    28.858     8.808
    44   6 C        2.897    -0.056    29.381     8.887
    45   6 C        2.897    -0.030    28.756     8.792
    46   6 C        3.805    -0.061    21.670     6.627
    47   6 C        3.801    -0.069    21.817     6.650
    48   6 C        3.800    -0.061    21.666     6.627
    49   6 C        3.799    -0.055    21.572     6.613
    50   6 C        3.751    -0.109    22.645     6.787
    51   8 O        1.655    -0.414    21.121     6.204
    52   8 O        1.657    -0.443    21.697     6.288
    53   6 C        3.628     0.227    17.420     6.011
    54   6 C        3.723     0.089    19.201     6.257
    55   6 C        3.724     0.098    19.067     6.235
    56   6 C        3.722     0.093    19.148     6.249
    57   6 C        3.738     0.096    19.077     6.233
    58   8 O        1.695    -0.358    20.031     6.043
    59   6 C        3.674     0.070    19.623     6.348
    60   8 O        1.653    -0.492    22.713     6.434
    61   8 O        1.654    -0.494    22.756     6.440
    62   8 O        1.652    -0.483    22.528     6.407
    63   8 O        1.654    -0.498    22.858     6.454
    64   6 C        2.975    -0.029    28.717     8.790
    65   6 C        2.924    -0.020    28.501     8.755
    66   6 C        2.926    -0.034    28.843     8.807
    67   6 C        2.975     0.027    27.388     8.584
    68   6 C        2.926    -0.036    28.895     8.815
    69   6 C        2.925    -0.027    28.679     8.782
    70   6 C        2.975     0.003    27.952     8.672
    71   6 C        2.923    -0.036    28.884     8.813
    72   6 C        2.920    -0.051    29.256     8.870
    73   6 C        2.846     0.144    24.869     8.173
    74   6 C        2.919    -0.054    29.336     8.882
    75   6 C        2.925    -0.033    28.819     8.804
    76   8 O        1.693    -0.362    20.116     6.055
    77   6 C        3.771     0.151    18.188     6.077
    78   6 C        3.755    -0.112    22.698     6.793
    79   6 C        3.756    -0.124    22.932     6.828
    80   6 C        3.755    -0.129    23.027     6.842
    81   1 H        0.926     0.062     2.177     2.307
    82   1 H        0.926     0.067     2.122     2.278
    83   1 H        0.924     0.053     2.280     2.361
    84   1 H        0.923     0.050     2.324     2.384
    85   1 H        0.923     0.039     2.459     2.452
    86   1 H        0.923     0.037     2.492     2.469
    87   1 H        0.923     0.059     2.215     2.328
    88   1 H        0.924     0.062     2.178     2.308
    89   1 H        0.924     0.028     2.614     2.528
    90   1 H        0.802     0.329     0.640     1.256
    91   1 H        0.802     0.339     0.616     1.233
    92   1 H        0.924     0.048     2.347     2.396
    93   1 H        0.924     0.065     2.142     2.289
    94   1 H        0.803     0.358     0.571     1.187
    95   1 H        0.923     0.031     2.579     2.511
    96   1 H        0.923     0.034     2.532     2.489
    97   1 H        0.923     0.053     2.287     2.365
    98   1 H        0.923     0.040     2.454     2.450
    99   1 H        0.924     0.071     2.072     2.251
   100   1 H        0.802     0.349     0.590     1.206
   101   1 H        0.803     0.379     0.525     1.138
   102   1 H        0.924     0.080     1.979     2.200
   103   1 H        0.924     0.109     1.709     2.044
   104   1 H        0.926     0.087     1.906     2.159
   105   1 H        0.926     0.081     1.969     2.194
   106   1 H        0.926     0.079     1.989     2.206
   107   1 H        0.926     0.060     2.196     2.317
   108   1 H        0.924     0.056     2.250     2.346
   109   1 H        0.924     0.080     1.975     2.198
   110   1 H        0.923     0.025     2.658     2.550
   111   1 H        0.926     0.042     2.429     2.437
   112   1 H        0.804     0.348     0.593     1.210
   113   1 H        0.926     0.038     2.475     2.460
   114   1 H        0.926     0.034     2.525     2.485
   115   1 H        0.926     0.041     2.436     2.441
   116   1 H        0.924     0.050     2.319     2.381
   117   1 H        0.924     0.044     2.402     2.424
   118   1 H        0.924     0.047     2.361     2.403
   119   1 H        0.924     0.036     2.504     2.475
   120   1 H        0.924     0.029     2.606     2.524
   121   1 H        0.924     0.028     2.617     2.530
   122   1 H        0.924     0.023     2.691     2.566
   123   1 H        0.924     0.029     2.601     2.522
   124   1 H        0.924     0.033     2.547     2.496
   125   1 H        0.924     0.037     2.493     2.469
   126   1 H        0.924     0.036     2.498     2.472
   127   1 H        0.802     0.329     0.640     1.257
   128   1 H        0.804     0.376     0.532     1.146
   129   1 H        0.923     0.059     2.214     2.327
   130   1 H        0.923     0.044     2.403     2.424
   131   1 H        0.923     0.039     2.468     2.457
   132   1 H        0.923     0.058     2.225     2.333
   133   1 H        0.923     0.046     2.370     2.408
   134   1 H        0.924     0.070     2.081     2.256
   135   1 H        0.924     0.057     2.232     2.336
   136   1 H        0.803     0.376     0.532     1.146
   137   1 H        0.804     0.376     0.532     1.146
   138   1 H        0.802     0.331     0.635     1.252
   139   1 H        0.803     0.360     0.565     1.181
   140   1 H        0.926     0.046     2.370     2.408
   141   1 H        0.926     0.065     2.142     2.289
   142   1 H        0.926     0.065     2.140     2.288
   143   1 H        0.926     0.063     2.161     2.299
   144   1 H        0.926     0.055     2.253     2.347
   145   1 H        0.926     0.055     2.252     2.347
   146   1 H        0.926     0.070     2.089     2.260
   147   1 H        0.926     0.044     2.393     2.419
   148   1 H        0.925     0.036     2.508     2.476
   149   1 H        0.925     0.043     2.414     2.430
   150   1 H        0.925     0.051     2.310     2.377
   151   1 H        0.925     0.052     2.294     2.369
   152   1 H        0.925     0.056     2.244     2.343
   153   1 H        0.925     0.050     2.315     2.380
   154   1 H        0.925     0.048     2.342     2.393
   155   1 H        0.925     0.059     2.208     2.324
   156   1 H        0.925     0.047     2.356     2.401

 Mol. C6AA /au·bohr⁶  :     238598.266628
 Mol. C8AA /au·bohr⁸  :    5454637.190871
 Mol. α(0) /au        :        737.193144


Wiberg/Mayer (AO) data.
largest (>0.10) Wiberg bond orders for each atom

 ---------------------------------------------------------------------------
     #   Z sym  total        # sym  WBO       # sym  WBO       # sym  WBO
 ---------------------------------------------------------------------------
     1   6 C    3.943 --     6 C    1.382     2 C    1.330    51 O    1.079
     2   6 C    3.972 --     3 C    1.389     1 C    1.330     7 C    0.994
     3   6 C    3.986 --     4 C    1.422     2 C    1.389    13 C    0.998
     4   6 C    3.981 --     3 C    1.422     5 C    1.362    81 H    0.962
     5   6 C    3.945 --     6 C    1.382     4 C    1.362    52 O    1.074
     6   6 C    3.981 --     1 C    1.382     5 C    1.382    82 H    0.958
     7   6 C    3.939 --     2 C    0.994    12 O    0.954    83 H    0.946
                             8 C    0.945
     8   6 C    3.951 --    15 O    0.993     9 C    0.971    84 H    0.954
                             7 C    0.945
     9   6 C    3.932 --     8 C    0.971    10 C    0.964    17 O    0.949
                            85 H    0.945
    10   6 C    3.929 --     9 C    0.964    11 C    0.956    86 H    0.955
                            16 O    0.951
    11   6 C    3.949 --    18 C    0.980    12 O    0.976    10 C    0.956
                            87 H    0.952
    12   8 O    2.078 --    11 C    0.976     7 C    0.954
    13   6 C    3.955 --     3 C    0.998    14 O    0.991    88 H    0.968
                            89 H    0.955
    14   8 O    1.926 --    13 C    0.991    90 H    0.854
    15   8 O    1.942 --     8 C    0.993    91 H    0.840
    16   8 O    2.109 --    20 C    0.981    10 C    0.951
    17   8 O    2.271 --    33 C    1.060     9 C    0.949    35 O    0.137
    18   6 C    3.960 --    19 O    1.014    11 C    0.980    93 H    0.968
                            92 H    0.966
    19   8 O    1.935 --    18 C    1.014    94 H    0.858
    20   6 C    3.920 --    16 O    0.981    25 C    0.956    21 O    0.951
                            95 H    0.944
    21   8 O    2.071 --    20 C    0.951    22 C    0.944
    22   6 C    3.936 --    29 C    0.983    23 C    0.969    96 H    0.955
                            21 O    0.944
    23   6 C    3.966 --    28 O    1.009    22 C    0.969    24 C    0.963
                            97 H    0.957
    24   6 C    3.964 --    26 O    1.004    25 C    0.965    23 C    0.963
                            98 H    0.959
    25   6 C    3.942 --    24 C    0.965    27 O    0.962    20 C    0.956
                            99 H    0.953
    26   8 O    1.935 --    24 C    1.004   100 H    0.827
    27   8 O    2.094 --    53 C    0.984    25 C    0.962
    28   8 O    1.915 --    23 C    1.009   101 H    0.831
    29   6 C    3.924 --    22 C    0.983    30 O    0.961   102 H    0.960
                           103 H    0.960
    30   8 O    2.283 --    31 C    1.093    29 C    0.961    32 O    0.151
    31   6 C    3.895 --    32 O    1.683    30 O    1.093    64 C    1.030
    32   8 O    1.978 --    31 C    1.683    30 O    0.151
    33   6 C    3.894 --    35 O    1.650    34 C    1.086    17 O    1.060
    34   6 C    3.968 --    36 C    1.708    33 C    1.086   104 H    0.958
                            38 C    0.108
    35   8 O    1.943 --    33 C    1.650    17 O    0.137
    36   6 C    3.972 --    34 C    1.708    37 C    1.161   105 H    0.951
    37   6 C    3.986 --    38 C    1.777    36 C    1.161   106 H    0.955
    38   6 C    3.958 --    37 C    1.777    39 C    1.040   107 H    0.960
                            34 C    0.108
    39   6 C    3.986 --    38 C    1.040   108 H    0.974    40 C    0.952
                           109 H    0.951
    40   6 C    3.946 --    41 C    1.003    42 O    0.975   110 H    0.961
                            39 C    0.952
    41   6 C    3.984 --    43 C    1.832    40 C    1.003   111 H    0.965
                            45 C    0.127
    42   8 O    1.913 --    40 C    0.975   112 H    0.863
    43   6 C    3.990 --    41 C    1.832    44 C    1.125   113 H    0.960
    44   6 C    3.988 --    45 C    1.824    43 C    1.125   114 H    0.963
    45   6 C    3.982 --    44 C    1.824    46 C    1.033   115 H    0.962
                            41 C    0.127
    46   6 C    3.997 --    45 C    1.033    47 C    1.007   117 H    0.961
                           116 H    0.948
    47   6 C    3.993 --    48 C    1.008    46 C    1.007   119 H    0.975
                           118 H    0.965
    48   6 C    3.997 --    49 C    1.008    47 C    1.008   121 H    0.977
                           120 H    0.977
    49   6 C    3.996 --    50 C    1.021    48 C    1.008   122 H    0.974
                           123 H    0.973
    50   6 C    3.996 --    49 C    1.021   124 H    0.987   125 H    0.987
                           126 H    0.987
    51   8 O    2.111 --     1 C    1.079   127 H    0.839
    52   8 O    2.081 --     5 C    1.074   128 H    0.840
    53   6 C    3.912 --    27 O    0.984    58 O    0.951    54 C    0.949
                           129 H    0.947
    54   6 C    3.959 --    62 O    1.000    55 C    0.969   130 H    0.952
                            53 C    0.949
    55   6 C    3.963 --    61 O    1.001    54 C    0.969    56 C    0.968
                           131 H    0.959
    56   6 C    3.962 --    60 O    0.999    55 C    0.968    57 C    0.968
                           132 H    0.957
    57   6 C    3.932 --    59 C    0.983    56 C    0.968   133 H    0.956
                            58 O    0.941
    58   8 O    2.071 --    53 C    0.951    57 C    0.941
    59   6 C    3.959 --    63 O    1.014    57 C    0.983   134 H    0.967
                           135 H    0.962
    60   8 O    1.937 --    56 C    0.999   136 H    0.830
    61   8 O    1.925 --    55 C    1.001   137 H    0.841
    62   8 O    1.932 --    54 C    1.000   138 H    0.839
    63   8 O    1.915 --    59 C    1.014   139 H    0.829
    64   6 C    3.975 --    65 C    1.367    69 C    1.362    31 C    1.030
    65   6 C    3.988 --    66 C    1.475    64 C    1.367   140 H    0.966
    66   6 C    3.986 --    65 C    1.475    67 C    1.368   141 H    0.961
    67   6 C    3.984 --    66 C    1.368    68 C    1.365    70 C    1.066
    68   6 C    3.987 --    69 C    1.478    67 C    1.365   142 H    0.962
    69   6 C    3.987 --    68 C    1.478    64 C    1.362   143 H    0.964
    70   6 C    3.986 --    75 C    1.373    71 C    1.369    67 C    1.066
    71   6 C    3.986 --    72 C    1.471    70 C    1.369   144 H    0.964
    72   6 C    3.987 --    71 C    1.471    73 C    1.373   145 H    0.967
    73   6 C    3.931 --    74 C    1.378    72 C    1.373    76 O    1.010
    74   6 C    3.987 --    75 C    1.467    73 C    1.378   146 H    0.956
    75   6 C    3.987 --    74 C    1.467    70 C    1.373   147 H    0.962
    76   8 O    2.082 --    73 C    1.010    77 C    0.903
    77   6 C    3.930 --    78 C    0.997    79 C    0.995    80 C    0.995
                            76 O    0.903
    78   6 C    3.994 --    77 C    0.997   149 H    0.983   150 H    0.982
                           148 H    0.979
    79   6 C    3.991 --    77 C    0.995   153 H    0.985   151 H    0.985
                           152 H    0.982
    80   6 C    3.991 --    77 C    0.995   156 H    0.985   154 H    0.982
                           155 H    0.972
    81   1 H    0.996 --     4 C    0.962
    82   1 H    0.995 --     6 C    0.958
    83   1 H    0.997 --     7 C    0.946
    84   1 H    0.997 --     8 C    0.954
    85   1 H    0.997 --     9 C    0.945
    86   1 H    0.999 --    10 C    0.955
    87   1 H    0.996 --    11 C    0.952
    88   1 H    0.996 --    13 C    0.968
    89   1 H    0.999 --    13 C    0.955
    90   1 H    0.892 --    14 O    0.854
    91   1 H    0.885 --    15 O    0.840
    92   1 H    0.997 --    18 C    0.966
    93   1 H    0.996 --    18 C    0.968
    94   1 H    0.872 --    19 O    0.858
    95   1 H    0.999 --    20 C    0.944
    96   1 H    0.999 --    22 C    0.955
    97   1 H    0.997 --    23 C    0.957
    98   1 H    0.998 --    24 C    0.959
    99   1 H    0.995 --    25 C    0.953
   100   1 H    0.878 --    26 O    0.827
   101   1 H    0.856 --    28 O    0.831
   102   1 H    0.993 --    29 C    0.960
   103   1 H    0.988 --    29 C    0.960
   104   1 H    0.992 --    34 C    0.958
   105   1 H    0.993 --    36 C    0.951
   106   1 H    0.993 --    37 C    0.955
   107   1 H    0.996 --    38 C    0.960
   108   1 H    0.997 --    39 C    0.974
   109   1 H    0.990 --    39 C    0.951
   110   1 H    0.997 --    40 C    0.961
   111   1 H    0.998 --    41 C    0.965
   112   1 H    0.879 --    42 O    0.863
   113   1 H    0.999 --    43 C    0.960
   114   1 H    0.999 --    44 C    0.963
   115   1 H    0.998 --    45 C    0.962
   116   1 H    0.997 --    46 C    0.948
   117   1 H    0.998 --    46 C    0.961
   118   1 H    0.998 --    47 C    0.965
   119   1 H    0.998 --    47 C    0.975
   120   1 H    0.999 --    48 C    0.977
   121   1 H    0.999 --    48 C    0.977
   122   1 H    0.999 --    49 C    0.974
   123   1 H    0.999 --    49 C    0.973
   124   1 H    0.999 --    50 C    0.987
   125   1 H    0.999 --    50 C    0.987
   126   1 H    0.998 --    50 C    0.987
   127   1 H    0.891 --    51 O    0.839
   128   1 H    0.858 --    52 O    0.840
   129   1 H    0.996 --    53 C    0.947
   130   1 H    0.998 --    54 C    0.952
   131   1 H    0.998 --    55 C    0.959
   132   1 H    0.996 --    56 C    0.957
   133   1 H    0.998 --    57 C    0.956
   134   1 H    0.995 --    59 C    0.967
   135   1 H    0.996 --    59 C    0.962
   136   1 H    0.859 --    60 O    0.830
   137   1 H    0.858 --    61 O    0.841
   138   1 H    0.890 --    62 O    0.839
   139   1 H    0.870 --    63 O    0.829
   140   1 H    0.997 --    65 C    0.966
   141   1 H    0.995 --    66 C    0.961
   142   1 H    0.995 --    68 C    0.962
   143   1 H    0.995 --    69 C    0.964
   144   1 H    0.997 --    71 C    0.964
   145   1 H    0.996 --    72 C    0.967
   146   1 H    0.995 --    74 C    0.956
   147   1 H    0.998 --    75 C    0.962
   148   1 H    0.999 --    78 C    0.979
   149   1 H    0.998 --    78 C    0.983
   150   1 H    0.997 --    78 C    0.982
   151   1 H    0.997 --    79 C    0.985
   152   1 H    0.995 --    79 C    0.982
   153   1 H    0.997 --    79 C    0.985
   154   1 H    0.997 --    80 C    0.982
   155   1 H    0.996 --    80 C    0.972
   156   1 H    0.998 --    80 C    0.985
 ---------------------------------------------------------------------------

Topologies differ in total number of bonds
Writing topology from bond orders to xtbtopo.mol

molecular dipole:
                 x           y           z       tot (Debye)
 q only:       -2.638      -3.372       1.021
   full:       -1.849      -3.182       1.604      10.204
molecular quadrupole (traceless):
                xx          xy          yy          xz          yz          zz
 q only:       31.142     -39.392     -22.379       5.879       7.027      -8.763
  q+dip:       18.719     -45.155     -15.123      11.662      15.944      -3.596
   full:       14.772     -45.262     -13.906      13.681       8.100      -0.866


           -------------------------------------------------
          | TOTAL ENERGY             -252.472904967433 Eh   |
          | GRADIENT NORM               0.123231702526 Eh/α |
          | HOMO-LUMO GAP               1.633492565702 eV   |
           -------------------------------------------------

------------------------------------------------------------------------
 * finished run on 2026/06/19 at 18:52:56.897     
------------------------------------------------------------------------
 total:
 * wall-time:     0 d,  0 h,  0 min,  0.348 sec
 *  cpu-time:     0 d,  0 h,  0 min,  5.368 sec
 * ratio c/w:    15.413 speedup
 SCF:
 * wall-time:     0 d,  0 h,  0 min,  0.296 sec
 *  cpu-time:     0 d,  0 h,  0 min,  4.693 sec
 * ratio c/w:    15.866 speedup

normal termination of xtb
