      -----------------------------------------------------------      
     |                   =====================                   |     
     |                           x T B                           |     
     |                   =====================                   |     
     |                         S. Grimme                         |     
     |          Mulliken Center for Theoretical Chemistry        |     
     |                    University of Bonn                     |     
      -----------------------------------------------------------      

   * xtb version 6.7.1 (edcfbbe) compiled by 'albert@albert-system' on 2024-07-22

   xtb is free software: you can redistribute it and/or modify it under
   the terms of the GNU Lesser General Public License as published by
   the Free Software Foundation, either version 3 of the License, or
   (at your option) any later version.
   
   xtb is distributed in the hope that it will be useful,
   but WITHOUT ANY WARRANTY; without even the implied warranty of
   MERCHANTABILITY or FITNESS FOR A PARTICULAR PURPOSE.  See the
   GNU Lesser General Public License for more details.
   
   Cite this work as:
   * C. Bannwarth, E. Caldeweyher, S. Ehlert, A. Hansen, P. Pracht,
     J. Seibert, S. Spicher, S. Grimme, WIREs Comput. Mol. Sci., 2020, 11,
     e01493. DOI: 10.1002/wcms.1493
   
   for GFN2-xTB:
   * C. Bannwarth, S. Ehlert and S. Grimme., J. Chem. Theory Comput., 2019,
     15, 1652-1671. DOI: 10.1021/acs.jctc.8b01176
   for GFN1-xTB:
   * S. Grimme, C. Bannwarth, P. Shushkov, J. Chem. Theory Comput., 2017,
     13, 1989-2009. DOI: 10.1021/acs.jctc.7b00118
   for GFN0-xTB:
   * P. Pracht, E. Caldeweyher, S. Ehlert, S. Grimme, ChemRxiv, 2019, preprint.
     DOI: 10.26434/chemrxiv.8326202.v1
   for GFN-FF:
   * S. Spicher and S. Grimme, Angew. Chem. Int. Ed., 2020, 59, 15665-15673.
     DOI: 10.1002/anie.202004239
   
   for ALPB and GBSA implicit solvation:
   * S. Ehlert, M. Stahn, S. Spicher, S. Grimme, J. Chem. Theory Comput.,
     2021, 17, 4250-4261. DOI: 10.1021/acs.jctc.1c00471
   
   for ddCOSMO and CPCM-X implicit solvation:
   * M. Stahn, S. Ehlert, S. Grimme, J. Phys. Chem. A,
     2023, XX, XXXX-XXXX. DOI: 10.1021/acs.jpca.3c04382
   
   for DFT-D4:
   * E. Caldeweyher, C. Bannwarth and S. Grimme, J. Chem. Phys., 2017,
     147, 034112. DOI: 10.1063/1.4993215
   * E. Caldeweyher, S. Ehlert, A. Hansen, H. Neugebauer, S. Spicher,
     C. Bannwarth and S. Grimme, J. Chem. Phys., 2019, 150, 154122.
     DOI: 10.1063/1.5090222
   * E. Caldeweyher, J.-M. Mewes, S. Ehlert and S. Grimme, Phys. Chem. Chem. Phys.
     2020, 22, 8499-8512. DOI: 10.1039/D0CP00502A
   
   for sTDA-xTB:
   * S. Grimme and C. Bannwarth, J. Chem. Phys., 2016, 145, 054103.
     DOI: 10.1063/1.4959605
   
   in the mass-spec context:
   * V. Asgeirsson, C. Bauer and S. Grimme, Chem. Sci., 2017, 8, 4879.
     DOI: 10.1039/c7sc00601b
   * J. Koopman and S. Grimme, ACS Omega 2019, 4, 12, 15120-15133.
     DOI: 10.1021/acsomega.9b02011
   
   for metadynamics refer to:
   * S. Grimme, J. Chem. Theory Comput., 2019, 155, 2847-2862
     DOI: 10.1021/acs.jctc.9b00143
   
   for SPH calculations refer to:
   * S. Spicher and S. Grimme, J. Chem. Theory Comput., 2021, 17, 1701-1714
     DOI: 10.1021/acs.jctc.0c01306
   
   for ONIOM refer to:
   * C. Plett, A. Katbashev, S. Ehlert, S. Grimme, M. Bursch,
     Phys. Chem. Chem. Phys., 2023, 25, 17860-17868. DOI: 10.1039/D3CP02178E
   
   for DIPRO refer to:
   * J. Kohn, N. Gildemeister, S. Grimme, D. Fazzi, A. Hansen,
     J. Chem. Phys., 2023, just accepted.
   
   for PTB refer to:
   * S. Grimme, M. Mueller, A. Hansen, J. Chem. Phys., 2023, 158, 124111.
     DOI: 10.1063/5.0137838
   
   with help from (in alphabetical order)
   P. Atkinson, C. Bannwarth, F. Bohle, G. Brandenburg, E. Caldeweyher
   M. Checinski, S. Dohm, S. Ehlert, S. Ehrlich, I. Gerasimov, C. Hölzer
   A. Katbashev, J. Kohn, J. Koopman, C. Lavigne, S. Lehtola, F. März, M. Müller,
   F. Musil, H. Neugebauer, J. Pisarek, C. Plett, P. Pracht, F. Pultar,
   J. Seibert, P. Shushkov, S. Spicher, M. Stahn, M. Steiner, T. Strunk,
   J. Stückrath, T. Rose, and J. Unsleber
   
 * started run on 2026/06/19 at 18:52:55.075     
   ID    Z sym.   atoms
    1    6 C      1-11, 13, 18, 20, 22-25, 29, 31, 33, 34, 36-41, 43-50,
                  53-57, 59, 64-75, 77-80
    2    8 O      12, 14-17, 19, 21, 26-28, 30, 32, 35, 42, 51, 52, 58,
                  60-63, 76
    3    1 H      81-156

           -------------------------------------------------
          |                Calculation Setup                |
           -------------------------------------------------

          program call               : xtb PAPU-0086/conf03.xyz --gfn 2 --alpb water --chrg 0 --uhf 0 --namespace PAPU-0086/conf03_water
          hostname                   : cpu10
          calculation namespace      : PAPU-0086/conf03_water
          coordinate file            : PAPU-0086/conf03.xyz
          omp threads                :                    16


           -------------------------------------------------
          |                 G F N 2 - x T B                 |
           -------------------------------------------------

        Reference                      10.1021/acs.jctc.8b01176
      * Hamiltonian:
        H0-scaling (s, p, d)           1.850000    2.230000    2.230000
        zeta-weighting                 0.500000
      * Dispersion:
        s8                             2.700000
        a1                             0.520000
        a2                             5.000000
        s9                             5.000000
      * Repulsion:
        kExp                           1.500000    1.000000
        rExp                           1.000000
      * Coulomb:
        alpha                          2.000000
        third order                    shell-resolved
        anisotropic                    true
        a3                             3.000000
        a5                             4.000000
        cn-shift                       1.200000
        cn-exp                         4.000000
        max-rad                        5.000000

      * Solvation model:               ALPB
        Solvent                        water
        Parameter file                 internal GFN2-xTB/ALPB
        Dielectric constant                8.0200E+01
        Reference state                gsolv [1 M gas/solution]
        Free energy shift                  1.0808E-03 Eh       6.7819E-01 kcal/mol
        Temperature                        2.9815E+02 K
        Density                            1.0000E+00 kg/L
        Solvent mass                       1.8000E+01 g/mol
        Interaction kernel             P16
        Born radius scaling (c1)           1.4744E+00
        Born radii integrator          GBOBC
        Born offset                        0.0000E+00 a0       0.0000E+00 AA
        H-bond correction              true
        Ion screening                  false
        Surface tension                    1.0000E-05 Eh       1.5569E+01 dyn/cm
        Grid points                               230 per atom

          ...................................................
          :                      SETUP                      :
          :.................................................:
          :  # basis functions                 396          :
          :  # atomic orbitals                 396          :
          :  # shells                          236          :
          :  # electrons                       440          :
          :  max. iterations                   250          :
          :  Hamiltonian                  GFN2-xTB          :
          :  restarted?                      false          :
          :  GBSA solvation                   true          :
          :  PC potential                    false          :
          :  electronic temp.          300.0000000     K    :
          :  accuracy                    1.0000000          :
          :  -> integral cutoff          0.2500000E+02      :
          :  -> integral neglect         0.1000000E-07      :
          :  -> SCF convergence          0.1000000E-05 Eh   :
          :  -> wf. convergence          0.1000000E-03 e    :
          :  Broyden damping             0.4000000          :
          :  net charge                          0          :
          :  unpaired electrons                  0          :
          ...................................................

 iter      E             dE          RMSdq      gap      omega  full diag
   1   -254.9731341 -0.254973E+03  0.443E+00    2.31       0.0  T
   2   -255.2338848 -0.260751E+00  0.241E+00    1.83       1.0  T
   3   -255.2148769  0.190079E-01  0.101E+00    1.86       1.0  T
   4   -255.2536606 -0.387838E-01  0.333E-01    1.63       1.0  T
   5   -255.2614916 -0.783092E-02  0.133E-01    1.62       1.0  T
   6   -255.2623521 -0.860580E-03  0.651E-02    1.61       1.0  T
   7   -255.2624620 -0.109912E-03  0.295E-02    1.62       1.0  T
   8   -255.2625020 -0.399107E-04  0.118E-02    1.61       1.0  T
   9   -255.2625071 -0.518042E-05  0.614E-03    1.61       1.3  T
  10   -255.2625090 -0.185058E-05  0.334E-03    1.61       2.4  T
  11   -255.2625095 -0.509645E-06  0.167E-03    1.61       4.8  T
  12   -255.2625096 -0.831705E-07  0.737E-04    1.61      10.9  T
  13   -255.2625096 -0.280335E-07  0.347E-04    1.61      23.1  T

   *** convergence criteria satisfied after 13 iterations ***

         #    Occupation            Energy/Eh            Energy/eV
      -------------------------------------------------------------
         1        2.0000           -0.7693887             -20.9361
       ...           ...                  ...                  ...
       214        2.0000           -0.4032176             -10.9721
       215        2.0000           -0.4015009             -10.9254
       216        2.0000           -0.3961642             -10.7802
       217        2.0000           -0.3921240             -10.6702
       218        2.0000           -0.3837880             -10.4434
       219        2.0000           -0.3825566             -10.4099
       220        2.0000           -0.3597324              -9.7888 (HOMO)
       221                         -0.3005239              -8.1777 (LUMO)
       222                         -0.2914325              -7.9303
       223                         -0.2380127              -6.4767
       224                         -0.2346771              -6.3859
       225                         -0.2300931              -6.2612
       ...                                ...                  ...
       396                          0.6871891              18.6994
      -------------------------------------------------------------
                  HL-Gap            0.0592085 Eh            1.6111 eV
             Fermi-level           -0.3301282 Eh           -8.9832 eV

 SCC (total)                   0 d,  0 h,  0 min,  0.298 sec
 SCC setup                      ...        0 min,  0.004 sec (  1.194%)
 Dispersion                     ...        0 min,  0.004 sec (  1.400%)
 classical contributions        ...        0 min,  0.000 sec (  0.044%)
 integral evaluation            ...        0 min,  0.013 sec (  4.256%)
 iterations                     ...        0 min,  0.234 sec ( 78.425%)
 molecular gradient             ...        0 min,  0.043 sec ( 14.360%)
 printout                       ...        0 min,  0.001 sec (  0.305%)

         :::::::::::::::::::::::::::::::::::::::::::::::::::::
         ::                     SUMMARY                     ::
         :::::::::::::::::::::::::::::::::::::::::::::::::::::
         :: total energy            -252.469027898884 Eh    ::
         :: total w/o Gsasa/hb      -252.438401190271 Eh    ::
         :: gradient norm              0.124169152358 Eh/a0 ::
         :: HOMO-LUMO gap              1.611145256597 eV    ::
         ::.................................................::
         :: SCC energy              -255.248828970151 Eh    ::
         :: -> isotropic ES            0.569345953732 Eh    ::
         :: -> anisotropic ES         -0.020579140175 Eh    ::
         :: -> anisotropic XC          0.028362839493 Eh    ::
         :: -> dispersion             -0.211390769623 Eh    ::
         :: -> Gsolv                  -0.085273847097 Eh    ::
         ::    -> Gelec               -0.054647138485 Eh    ::
         ::    -> Gsasa                0.008743498998 Eh    ::
         ::    -> Ghb                 -0.040450967309 Eh    ::
         ::    -> Gshift               0.001080759698 Eh    ::
         :: repulsion energy           2.779801071268 Eh    ::
         :: add. restraining           0.000000000000 Eh    ::
         :: total charge               0.000000000000 e     ::
         :::::::::::::::::::::::::::::::::::::::::::::::::::::

           -------------------------------------------------
          |                Property Printout                |
           -------------------------------------------------

    * Orbital Energies and Occupations

         #    Occupation            Energy/Eh            Energy/eV
      -------------------------------------------------------------
         1        2.0000           -0.7693887             -20.9361
       ...           ...                  ...                  ...
       208        2.0000           -0.4139662             -11.2646
       209        2.0000           -0.4137299             -11.2582
       210        2.0000           -0.4104069             -11.1677
       211        2.0000           -0.4086749             -11.1206
       212        2.0000           -0.4082349             -11.1086
       213        2.0000           -0.4051568             -11.0249
       214        2.0000           -0.4032176             -10.9721
       215        2.0000           -0.4015009             -10.9254
       216        2.0000           -0.3961642             -10.7802
       217        2.0000           -0.3921240             -10.6702
       218        2.0000           -0.3837880             -10.4434
       219        2.0000           -0.3825566             -10.4099
       220        2.0000           -0.3597324              -9.7888 (HOMO)
       221                         -0.3005239              -8.1777 (LUMO)
       222                         -0.2914325              -7.9303
       223                         -0.2380127              -6.4767
       224                         -0.2346771              -6.3859
       225                         -0.2300931              -6.2612
       226                         -0.2284890              -6.2175
       227                         -0.2235794              -6.0839
       228                         -0.2219044              -6.0383
       229                         -0.2200680              -5.9884
       230                         -0.1941474              -5.2830
       231                         -0.1525192              -4.1503
       ...                                ...                  ...
       396                          0.6871891              18.6994
      -------------------------------------------------------------
                  HL-Gap            0.0592085 Eh            1.6111 eV
             Fermi-level           -0.3301282 Eh           -8.9832 eV

     #   Z          covCN         q      C6AA      α(0)
     1   6 C        2.841     0.146    24.820     8.164
     2   6 C        2.975    -0.046    29.142     8.855
     3   6 C        2.964    -0.001    28.051     8.687
     4   6 C        2.929    -0.087    30.188     9.011
     5   6 C        2.836     0.146    24.825     8.165
     6   6 C        2.923    -0.080    29.991     8.981
     7   6 C        3.744     0.107    18.887     6.200
     8   6 C        3.720     0.093    19.152     6.251
     9   6 C        3.783     0.115    18.719     6.163
    10   6 C        3.746     0.101    18.982     6.215
    11   6 C        3.735     0.096    19.076     6.233
    12   8 O        1.695    -0.332    19.569     5.972
    13   6 C        3.681     0.078    19.473     6.320
    14   8 O        1.652    -0.499    22.874     6.456
    15   8 O        1.651    -0.482    22.519     6.406
    16   8 O        1.697    -0.328    19.497     5.962
    17   8 O        1.703    -0.290    18.820     5.857
    18   6 C        3.674     0.075    19.553     6.337
    19   8 O        1.654    -0.475    22.364     6.384
    20   6 C        3.645     0.242    17.146     5.951
    21   8 O        1.696    -0.354    19.971     6.034
    22   6 C        3.742     0.112    18.810     6.188
    23   6 C        3.721     0.092    19.172     6.253
    24   6 C        3.722     0.096    19.100     6.242
    25   6 C        3.733     0.092    19.147     6.245
    26   8 O        1.652    -0.479    22.440     6.395
    27   8 O        1.697    -0.335    19.626     5.981
    28   8 O        1.653    -0.492    22.730     6.436
    29   6 C        3.735     0.070    19.487     6.300
    30   8 O        1.704    -0.269    18.458     5.801
    31   6 C        2.756     0.347    21.103     7.523
    32   8 O        0.857    -0.475    23.247     6.464
    33   6 C        2.757     0.352    21.028     7.509
    34   6 C        2.895    -0.087    30.176     9.007
    35   8 O        0.858    -0.500    23.784     6.539
    36   6 C        2.902     0.002    27.974     8.672
    37   6 C        2.897    -0.040    28.982     8.827
    38   6 C        2.898    -0.013    28.343     8.729
    39   6 C        3.806    -0.075    21.920     6.665
    40   6 C        3.729     0.123    18.671     6.169
    41   6 C        2.895    -0.060    29.483     8.903
    42   8 O        1.652    -0.511    23.137     6.493
    43   6 C        2.900    -0.036    28.888     8.813
    44   6 C        2.898    -0.052    29.287     8.873
    45   6 C        2.896    -0.033    28.817     8.802
    46   6 C        3.806    -0.060    21.642     6.623
    47   6 C        3.802    -0.068    21.800     6.647
    48   6 C        3.801    -0.059    21.640     6.623
    49   6 C        3.799    -0.058    21.623     6.621
    50   6 C        3.751    -0.109    22.638     6.785
    51   8 O        1.654    -0.402    20.882     6.169
    52   8 O        1.657    -0.451    21.864     6.312
    53   6 C        3.628     0.227    17.421     6.011
    54   6 C        3.723     0.090    19.195     6.256
    55   6 C        3.724     0.098    19.065     6.235
    56   6 C        3.722     0.093    19.148     6.249
    57   6 C        3.738     0.096    19.078     6.233
    58   8 O        1.695    -0.357    20.028     6.042
    59   6 C        3.674     0.070    19.623     6.348
    60   8 O        1.653    -0.491    22.710     6.433
    61   8 O        1.654    -0.494    22.755     6.440
    62   8 O        1.652    -0.484    22.554     6.411
    63   8 O        1.654    -0.498    22.857     6.454
    64   6 C        2.974    -0.028    28.694     8.787
    65   6 C        2.924    -0.021    28.520     8.758
    66   6 C        2.925    -0.034    28.836     8.806
    67   6 C        2.976     0.028    27.383     8.584
    68   6 C        2.925    -0.034    28.837     8.806
    69   6 C        2.925    -0.028    28.689     8.784
    70   6 C        2.976     0.003    27.965     8.674
    71   6 C        2.922    -0.037    28.910     8.817
    72   6 C        2.920    -0.052    29.288     8.875
    73   6 C        2.846     0.142    24.898     8.178
    74   6 C        2.919    -0.047    29.174     8.857
    75   6 C        2.925    -0.043    29.078     8.843
    76   8 O        1.693    -0.357    20.029     6.042
    77   6 C        3.771     0.151    18.188     6.077
    78   6 C        3.755    -0.119    22.826     6.812
    79   6 C        3.756    -0.124    22.938     6.829
    80   6 C        3.755    -0.121    22.877     6.820
    81   1 H        0.926     0.061     2.189     2.314
    82   1 H        0.926     0.069     2.098     2.265
    83   1 H        0.924     0.048     2.347     2.396
    84   1 H        0.923     0.061     2.188     2.313
    85   1 H        0.923     0.043     2.407     2.426
    86   1 H        0.923     0.038     2.476     2.461
    87   1 H        0.923     0.060     2.197     2.318
    88   1 H        0.924     0.059     2.213     2.326
    89   1 H        0.924     0.028     2.615     2.529
    90   1 H        0.802     0.332     0.634     1.251
    91   1 H        0.802     0.339     0.614     1.231
    92   1 H        0.924     0.045     2.381     2.413
    93   1 H        0.924     0.062     2.180     2.309
    94   1 H        0.803     0.357     0.572     1.188
    95   1 H        0.923     0.030     2.584     2.514
    96   1 H        0.923     0.034     2.536     2.490
    97   1 H        0.923     0.054     2.276     2.359
    98   1 H        0.923     0.040     2.446     2.446
    99   1 H        0.924     0.072     2.066     2.248
   100   1 H        0.802     0.350     0.590     1.206
   101   1 H        0.803     0.379     0.525     1.138
   102   1 H        0.924     0.082     1.960     2.189
   103   1 H        0.924     0.109     1.706     2.043
   104   1 H        0.926     0.090     1.876     2.142
   105   1 H        0.926     0.073     2.057     2.243
   106   1 H        0.926     0.073     2.049     2.239
   107   1 H        0.926     0.059     2.214     2.327
   108   1 H        0.924     0.057     2.238     2.339
   109   1 H        0.924     0.071     2.078     2.254
   110   1 H        0.923     0.031     2.569     2.507
   111   1 H        0.926     0.050     2.324     2.384
   112   1 H        0.804     0.350     0.588     1.204
   113   1 H        0.926     0.041     2.429     2.437
   114   1 H        0.926     0.036     2.507     2.476
   115   1 H        0.926     0.030     2.582     2.513
   116   1 H        0.924     0.046     2.370     2.407
   117   1 H        0.924     0.044     2.393     2.419
   118   1 H        0.924     0.050     2.318     2.381
   119   1 H        0.924     0.031     2.571     2.507
   120   1 H        0.924     0.026     2.650     2.546
   121   1 H        0.924     0.023     2.694     2.567
   122   1 H        0.924     0.031     2.567     2.506
   123   1 H        0.924     0.031     2.566     2.505
   124   1 H        0.924     0.037     2.488     2.467
   125   1 H        0.924     0.031     2.579     2.511
   126   1 H        0.924     0.034     2.528     2.486
   127   1 H        0.801     0.326     0.647     1.264
   128   1 H        0.804     0.378     0.526     1.140
   129   1 H        0.923     0.059     2.212     2.326
   130   1 H        0.923     0.044     2.402     2.424
   131   1 H        0.923     0.038     2.471     2.459
   132   1 H        0.923     0.058     2.227     2.334
   133   1 H        0.923     0.046     2.370     2.407
   134   1 H        0.924     0.071     2.080     2.255
   135   1 H        0.924     0.057     2.234     2.337
   136   1 H        0.803     0.376     0.532     1.146
   137   1 H        0.804     0.375     0.533     1.146
   138   1 H        0.802     0.332     0.634     1.250
   139   1 H        0.803     0.360     0.565     1.181
   140   1 H        0.926     0.054     2.275     2.359
   141   1 H        0.926     0.063     2.162     2.299
   142   1 H        0.926     0.062     2.179     2.308
   143   1 H        0.926     0.064     2.156     2.296
   144   1 H        0.926     0.052     2.300     2.372
   145   1 H        0.926     0.053     2.281     2.362
   146   1 H        0.926     0.052     2.299     2.371
   147   1 H        0.926     0.072     2.064     2.247
   148   1 H        0.925     0.043     2.412     2.429
   149   1 H        0.925     0.046     2.369     2.407
   150   1 H        0.925     0.050     2.314     2.379
   151   1 H        0.925     0.051     2.311     2.378
   152   1 H        0.925     0.055     2.255     2.348
   153   1 H        0.925     0.053     2.283     2.363
   154   1 H        0.925     0.054     2.265     2.354
   155   1 H        0.925     0.043     2.408     2.427
   156   1 H        0.925     0.043     2.404     2.425

 Mol. C6AA /au·bohr⁶  :     238604.641952
 Mol. C8AA /au·bohr⁸  :    5454751.612216
 Mol. α(0) /au        :        737.203582


Wiberg/Mayer (AO) data.
largest (>0.10) Wiberg bond orders for each atom

 ---------------------------------------------------------------------------
     #   Z sym  total        # sym  WBO       # sym  WBO       # sym  WBO
 ---------------------------------------------------------------------------
     1   6 C    3.942 --     6 C    1.386     2 C    1.331    51 O    1.074
     2   6 C    3.974 --     3 C    1.390     1 C    1.331     7 C    0.994
     3   6 C    3.987 --     4 C    1.425     2 C    1.390    13 C    0.998
     4   6 C    3.982 --     3 C    1.425     5 C    1.361    81 H    0.962
     5   6 C    3.944 --     6 C    1.380     4 C    1.361    52 O    1.076
     6   6 C    3.981 --     1 C    1.386     5 C    1.380    82 H    0.963
     7   6 C    3.940 --     2 C    0.994    12 O    0.950    83 H    0.949
                             8 C    0.945
     8   6 C    3.950 --    15 O    0.993     9 C    0.969    84 H    0.949
                             7 C    0.945
     9   6 C    3.931 --     8 C    0.969    10 C    0.965    17 O    0.949
                            85 H    0.945
    10   6 C    3.930 --     9 C    0.965    11 C    0.958    86 H    0.953
                            16 O    0.951
    11   6 C    3.949 --    18 C    0.979    12 O    0.972    10 C    0.958
                            87 H    0.952
    12   8 O    2.081 --    11 C    0.972     7 C    0.950
    13   6 C    3.955 --     3 C    0.998    14 O    0.990    88 H    0.968
                            89 H    0.955
    14   8 O    1.923 --    13 C    0.990    90 H    0.850
    15   8 O    1.948 --     8 C    0.993    91 H    0.835
    16   8 O    2.107 --    20 C    0.980    10 C    0.951
    17   8 O    2.264 --    33 C    1.069     9 C    0.949    35 O    0.139
    18   6 C    3.961 --    19 O    1.015    11 C    0.979    93 H    0.968
                            92 H    0.966
    19   8 O    1.936 --    18 C    1.015    94 H    0.858
    20   6 C    3.920 --    16 O    0.980    25 C    0.956    21 O    0.951
                            95 H    0.945
    21   8 O    2.079 --    20 C    0.951    22 C    0.943
    22   6 C    3.935 --    29 C    0.982    23 C    0.969    96 H    0.956
                            21 O    0.943
    23   6 C    3.966 --    28 O    1.009    22 C    0.969    24 C    0.962
                            97 H    0.957
    24   6 C    3.964 --    26 O    1.004    25 C    0.965    23 C    0.962
                            98 H    0.959
    25   6 C    3.942 --    24 C    0.965    27 O    0.962    20 C    0.956
                            99 H    0.953
    26   8 O    1.936 --    24 C    1.004   100 H    0.827
    27   8 O    2.095 --    53 C    0.984    25 C    0.962
    28   8 O    1.916 --    23 C    1.009   101 H    0.831
    29   6 C    3.923 --    22 C    0.982    30 O    0.961   102 H    0.960
                           103 H    0.960
    30   8 O    2.285 --    31 C    1.094    29 C    0.961    32 O    0.152
    31   6 C    3.896 --    32 O    1.684    30 O    1.094    64 C    1.029
    32   8 O    1.980 --    31 C    1.684    30 O    0.152
    33   6 C    3.895 --    35 O    1.649    34 C    1.082    17 O    1.069
    34   6 C    3.968 --    36 C    1.722    33 C    1.082   104 H    0.956
                            38 C    0.102
    35   8 O    1.942 --    33 C    1.649    17 O    0.139
    36   6 C    3.974 --    34 C    1.722    37 C    1.152   105 H    0.954
    37   6 C    3.986 --    38 C    1.788    36 C    1.152   106 H    0.956
    38   6 C    3.960 --    37 C    1.788    39 C    1.039   107 H    0.954
                            34 C    0.102
    39   6 C    3.986 --    38 C    1.039   108 H    0.974   109 H    0.957
                            40 C    0.940
    40   6 C    3.944 --    41 C    1.008    42 O    0.982   110 H    0.953
                            39 C    0.940
    41   6 C    3.984 --    43 C    1.837    40 C    1.008   111 H    0.962
                            45 C    0.123
    42   8 O    1.919 --    40 C    0.982   112 H    0.862
    43   6 C    3.990 --    41 C    1.837    44 C    1.119   113 H    0.961
    44   6 C    3.989 --    45 C    1.833    43 C    1.119   114 H    0.961
    45   6 C    3.981 --    44 C    1.833    46 C    1.031   115 H    0.966
                            41 C    0.123
    46   6 C    3.997 --    45 C    1.031    47 C    1.006   116 H    0.959
                           117 H    0.954
    47   6 C    3.993 --    48 C    1.008    46 C    1.006   119 H    0.976
                           118 H    0.964
    48   6 C    3.997 --    47 C    1.008    49 C    1.007   120 H    0.977
                           121 H    0.975
    49   6 C    3.996 --    50 C    1.021    48 C    1.007   122 H    0.977
                           123 H    0.972
    50   6 C    3.996 --    49 C    1.021   124 H    0.987   126 H    0.987
                           125 H    0.987
    51   8 O    2.131 --     1 C    1.074   127 H    0.850
    52   8 O    2.073 --     5 C    1.076   128 H    0.839
    53   6 C    3.912 --    27 O    0.984    58 O    0.951    54 C    0.949
                           129 H    0.947
    54   6 C    3.959 --    62 O    0.999    55 C    0.969   130 H    0.951
                            53 C    0.949
    55   6 C    3.963 --    61 O    1.001    54 C    0.969    56 C    0.968
                           131 H    0.959
    56   6 C    3.962 --    60 O    0.999    55 C    0.968    57 C    0.968
                           132 H    0.957
    57   6 C    3.932 --    59 C    0.983    56 C    0.968   133 H    0.956
                            58 O    0.941
    58   8 O    2.071 --    53 C    0.951    57 C    0.941
    59   6 C    3.959 --    63 O    1.014    57 C    0.983   134 H    0.967
                           135 H    0.962
    60   8 O    1.937 --    56 C    0.999   136 H    0.830
    61   8 O    1.925 --    55 C    1.001   137 H    0.841
    62   8 O    1.932 --    54 C    0.999   138 H    0.838
    63   8 O    1.915 --    59 C    1.014   139 H    0.829
    64   6 C    3.977 --    65 C    1.368    69 C    1.366    31 C    1.029
    65   6 C    3.987 --    66 C    1.474    64 C    1.368   140 H    0.965
    66   6 C    3.987 --    65 C    1.474    67 C    1.372   141 H    0.965
    67   6 C    3.984 --    68 C    1.374    66 C    1.372    70 C    1.048
    68   6 C    3.988 --    69 C    1.473    67 C    1.374   142 H    0.965
    69   6 C    3.987 --    68 C    1.473    64 C    1.366   143 H    0.962
    70   6 C    3.985 --    71 C    1.375    75 C    1.375    67 C    1.048
                            73 C    0.101
    71   6 C    3.987 --    72 C    1.465    70 C    1.375   144 H    0.967
                            74 C    0.102
    72   6 C    3.987 --    71 C    1.465    73 C    1.374   145 H    0.967
                            75 C    0.101
    73   6 C    3.933 --    74 C    1.377    72 C    1.374    76 O    1.012
                            70 C    0.101
    74   6 C    3.989 --    75 C    1.462    73 C    1.377   146 H    0.957
                            71 C    0.102
    75   6 C    3.982 --    74 C    1.462    70 C    1.375   147 H    0.946
                            72 C    0.101
    76   8 O    2.095 --    73 C    1.012    77 C    0.906
    77   6 C    3.933 --    80 C    0.998    78 C    0.995    79 C    0.995
                            76 O    0.906
    78   6 C    3.994 --    77 C    0.995   149 H    0.984   150 H    0.982
                           148 H    0.977
    79   6 C    3.991 --    77 C    0.995   151 H    0.985   153 H    0.985
                           152 H    0.982
    80   6 C    3.994 --    77 C    0.998   156 H    0.985   154 H    0.983
                           155 H    0.981
    81   1 H    0.996 --     4 C    0.962
    82   1 H    0.995 --     6 C    0.963
    83   1 H    0.997 --     7 C    0.949
    84   1 H    0.996 --     8 C    0.949
    85   1 H    0.997 --     9 C    0.945
    86   1 H    0.998 --    10 C    0.953
    87   1 H    0.996 --    11 C    0.952
    88   1 H    0.996 --    13 C    0.968
    89   1 H    0.999 --    13 C    0.955
    90   1 H    0.890 --    14 O    0.850
    91   1 H    0.885 --    15 O    0.835
    92   1 H    0.997 --    18 C    0.966
    93   1 H    0.996 --    18 C    0.968
    94   1 H    0.872 --    19 O    0.858
    95   1 H    0.999 --    20 C    0.945
    96   1 H    0.999 --    22 C    0.956
    97   1 H    0.997 --    23 C    0.957
    98   1 H    0.998 --    24 C    0.959
    99   1 H    0.995 --    25 C    0.953
   100   1 H    0.878 --    26 O    0.827
   101   1 H    0.856 --    28 O    0.831
   102   1 H    0.992 --    29 C    0.960
   103   1 H    0.988 --    29 C    0.960
   104   1 H    0.991 --    34 C    0.956
   105   1 H    0.995 --    36 C    0.954
   106   1 H    0.994 --    37 C    0.956
   107   1 H    0.996 --    38 C    0.954
   108   1 H    0.996 --    39 C    0.974
   109   1 H    0.993 --    39 C    0.957
   110   1 H    0.994 --    40 C    0.953
   111   1 H    0.998 --    41 C    0.962
   112   1 H    0.877 --    42 O    0.862
   113   1 H    0.998 --    43 C    0.961
   114   1 H    0.999 --    44 C    0.961
   115   1 H    0.999 --    45 C    0.966
   116   1 H    0.998 --    46 C    0.959
   117   1 H    0.997 --    46 C    0.954
   118   1 H    0.997 --    47 C    0.964
   119   1 H    0.999 --    47 C    0.976
   120   1 H    0.999 --    48 C    0.977
   121   1 H    0.999 --    48 C    0.975
   122   1 H    0.999 --    49 C    0.977
   123   1 H    0.999 --    49 C    0.972
   124   1 H    0.998 --    50 C    0.987
   125   1 H    0.999 --    50 C    0.987
   126   1 H    0.998 --    50 C    0.987
   127   1 H    0.893 --    51 O    0.850
   128   1 H    0.856 --    52 O    0.839
   129   1 H    0.996 --    53 C    0.947
   130   1 H    0.998 --    54 C    0.951
   131   1 H    0.998 --    55 C    0.959
   132   1 H    0.996 --    56 C    0.957
   133   1 H    0.998 --    57 C    0.956
   134   1 H    0.995 --    59 C    0.967
   135   1 H    0.996 --    59 C    0.962
   136   1 H    0.859 --    60 O    0.830
   137   1 H    0.859 --    61 O    0.841
   138   1 H    0.890 --    62 O    0.838
   139   1 H    0.870 --    63 O    0.829
   140   1 H    0.997 --    65 C    0.965
   141   1 H    0.996 --    66 C    0.965
   142   1 H    0.996 --    68 C    0.965
   143   1 H    0.995 --    69 C    0.962
   144   1 H    0.997 --    71 C    0.967
   145   1 H    0.997 --    72 C    0.967
   146   1 H    0.997 --    74 C    0.957
   147   1 H    0.995 --    75 C    0.946
   148   1 H    0.998 --    78 C    0.977
   149   1 H    0.998 --    78 C    0.984
   150   1 H    0.997 --    78 C    0.982
   151   1 H    0.997 --    79 C    0.985
   152   1 H    0.996 --    79 C    0.982
   153   1 H    0.997 --    79 C    0.985
   154   1 H    0.997 --    80 C    0.983
   155   1 H    0.998 --    80 C    0.981
   156   1 H    0.998 --    80 C    0.985
 ---------------------------------------------------------------------------

Topologies differ in total number of bonds
Writing topology from bond orders to xtbtopo.mol

molecular dipole:
                 x           y           z       tot (Debye)
 q only:       -2.668      -2.140       0.511
   full:       -2.015      -1.687       1.103       7.244
molecular quadrupole (traceless):
                xx          xy          yy          xz          yz          zz
 q only:       34.981     -56.634     -16.838      30.061      18.707     -18.143
  q+dip:       23.901     -68.333      -7.123      43.702      26.847     -16.778
   full:       20.259     -66.817      -6.942      43.535      21.601     -13.317


           -------------------------------------------------
          | TOTAL ENERGY             -252.469027898884 Eh   |
          | GRADIENT NORM               0.124169152358 Eh/α |
          | HOMO-LUMO GAP               1.611145256597 eV   |
           -------------------------------------------------

------------------------------------------------------------------------
 * finished run on 2026/06/19 at 18:52:55.434     
------------------------------------------------------------------------
 total:
 * wall-time:     0 d,  0 h,  0 min,  0.358 sec
 *  cpu-time:     0 d,  0 h,  0 min,  5.456 sec
 * ratio c/w:    15.222 speedup
 SCF:
 * wall-time:     0 d,  0 h,  0 min,  0.299 sec
 *  cpu-time:     0 d,  0 h,  0 min,  4.701 sec
 * ratio c/w:    15.720 speedup

normal termination of xtb
