      -----------------------------------------------------------      
     |                   =====================                   |     
     |                           x T B                           |     
     |                   =====================                   |     
     |                         S. Grimme                         |     
     |          Mulliken Center for Theoretical Chemistry        |     
     |                    University of Bonn                     |     
      -----------------------------------------------------------      

   * xtb version 6.7.1 (edcfbbe) compiled by 'albert@albert-system' on 2024-07-22

   xtb is free software: you can redistribute it and/or modify it under
   the terms of the GNU Lesser General Public License as published by
   the Free Software Foundation, either version 3 of the License, or
   (at your option) any later version.
   
   xtb is distributed in the hope that it will be useful,
   but WITHOUT ANY WARRANTY; without even the implied warranty of
   MERCHANTABILITY or FITNESS FOR A PARTICULAR PURPOSE.  See the
   GNU Lesser General Public License for more details.
   
   Cite this work as:
   * C. Bannwarth, E. Caldeweyher, S. Ehlert, A. Hansen, P. Pracht,
     J. Seibert, S. Spicher, S. Grimme, WIREs Comput. Mol. Sci., 2020, 11,
     e01493. DOI: 10.1002/wcms.1493
   
   for GFN2-xTB:
   * C. Bannwarth, S. Ehlert and S. Grimme., J. Chem. Theory Comput., 2019,
     15, 1652-1671. DOI: 10.1021/acs.jctc.8b01176
   for GFN1-xTB:
   * S. Grimme, C. Bannwarth, P. Shushkov, J. Chem. Theory Comput., 2017,
     13, 1989-2009. DOI: 10.1021/acs.jctc.7b00118
   for GFN0-xTB:
   * P. Pracht, E. Caldeweyher, S. Ehlert, S. Grimme, ChemRxiv, 2019, preprint.
     DOI: 10.26434/chemrxiv.8326202.v1
   for GFN-FF:
   * S. Spicher and S. Grimme, Angew. Chem. Int. Ed., 2020, 59, 15665-15673.
     DOI: 10.1002/anie.202004239
   
   for ALPB and GBSA implicit solvation:
   * S. Ehlert, M. Stahn, S. Spicher, S. Grimme, J. Chem. Theory Comput.,
     2021, 17, 4250-4261. DOI: 10.1021/acs.jctc.1c00471
   
   for ddCOSMO and CPCM-X implicit solvation:
   * M. Stahn, S. Ehlert, S. Grimme, J. Phys. Chem. A,
     2023, XX, XXXX-XXXX. DOI: 10.1021/acs.jpca.3c04382
   
   for DFT-D4:
   * E. Caldeweyher, C. Bannwarth and S. Grimme, J. Chem. Phys., 2017,
     147, 034112. DOI: 10.1063/1.4993215
   * E. Caldeweyher, S. Ehlert, A. Hansen, H. Neugebauer, S. Spicher,
     C. Bannwarth and S. Grimme, J. Chem. Phys., 2019, 150, 154122.
     DOI: 10.1063/1.5090222
   * E. Caldeweyher, J.-M. Mewes, S. Ehlert and S. Grimme, Phys. Chem. Chem. Phys.
     2020, 22, 8499-8512. DOI: 10.1039/D0CP00502A
   
   for sTDA-xTB:
   * S. Grimme and C. Bannwarth, J. Chem. Phys., 2016, 145, 054103.
     DOI: 10.1063/1.4959605
   
   in the mass-spec context:
   * V. Asgeirsson, C. Bauer and S. Grimme, Chem. Sci., 2017, 8, 4879.
     DOI: 10.1039/c7sc00601b
   * J. Koopman and S. Grimme, ACS Omega 2019, 4, 12, 15120-15133.
     DOI: 10.1021/acsomega.9b02011
   
   for metadynamics refer to:
   * S. Grimme, J. Chem. Theory Comput., 2019, 155, 2847-2862
     DOI: 10.1021/acs.jctc.9b00143
   
   for SPH calculations refer to:
   * S. Spicher and S. Grimme, J. Chem. Theory Comput., 2021, 17, 1701-1714
     DOI: 10.1021/acs.jctc.0c01306
   
   for ONIOM refer to:
   * C. Plett, A. Katbashev, S. Ehlert, S. Grimme, M. Bursch,
     Phys. Chem. Chem. Phys., 2023, 25, 17860-17868. DOI: 10.1039/D3CP02178E
   
   for DIPRO refer to:
   * J. Kohn, N. Gildemeister, S. Grimme, D. Fazzi, A. Hansen,
     J. Chem. Phys., 2023, just accepted.
   
   for PTB refer to:
   * S. Grimme, M. Mueller, A. Hansen, J. Chem. Phys., 2023, 158, 124111.
     DOI: 10.1063/5.0137838
   
   with help from (in alphabetical order)
   P. Atkinson, C. Bannwarth, F. Bohle, G. Brandenburg, E. Caldeweyher
   M. Checinski, S. Dohm, S. Ehlert, S. Ehrlich, I. Gerasimov, C. Hölzer
   A. Katbashev, J. Kohn, J. Koopman, C. Lavigne, S. Lehtola, F. März, M. Müller,
   F. Musil, H. Neugebauer, J. Pisarek, C. Plett, P. Pracht, F. Pultar,
   J. Seibert, P. Shushkov, S. Spicher, M. Stahn, M. Steiner, T. Strunk,
   J. Stückrath, T. Rose, and J. Unsleber
   
 * started run on 2026/06/19 at 18:52:42.665     
   ID    Z sym.   atoms
    1    6 C      1-11, 13, 18, 20, 22-25, 29, 31, 33, 34, 36-41, 43-50,
                  53-57, 59, 64-69, 71-76
    2    8 O      12, 14-17, 19, 21, 26-28, 30, 32, 35, 42, 51, 52, 58,
                  60-63, 70
    3    1 H      77-144

           -------------------------------------------------
          |                Calculation Setup                |
           -------------------------------------------------

          program call               : xtb PAPU-0082/conf01.xyz --gfn 2 --alpb octanol --chrg 0 --uhf 0 --namespace PAPU-0082/conf01_octanol
          hostname                   : cpu10
          calculation namespace      : PAPU-0082/conf01_octanol
          coordinate file            : PAPU-0082/conf01.xyz
          omp threads                :                    16


           -------------------------------------------------
          |                 G F N 2 - x T B                 |
           -------------------------------------------------

        Reference                      10.1021/acs.jctc.8b01176
      * Hamiltonian:
        H0-scaling (s, p, d)           1.850000    2.230000    2.230000
        zeta-weighting                 0.500000
      * Dispersion:
        s8                             2.700000
        a1                             0.520000
        a2                             5.000000
        s9                             5.000000
      * Repulsion:
        kExp                           1.500000    1.000000
        rExp                           1.000000
      * Coulomb:
        alpha                          2.000000
        third order                    shell-resolved
        anisotropic                    true
        a3                             3.000000
        a5                             4.000000
        cn-shift                       1.200000
        cn-exp                         4.000000
        max-rad                        5.000000

      * Solvation model:               ALPB
        Solvent                        octanol
        Parameter file                 internal GFN2-xTB/ALPB
        Dielectric constant                9.8629E+00
        Reference state                gsolv [1 M gas/solution]
        Free energy shift                  2.3397E-03 Eh       1.4682E+00 kcal/mol
        Temperature                        2.9815E+02 K
        Density                            8.3000E-01 kg/L
        Solvent mass                       1.3023E+02 g/mol
        Interaction kernel             P16
        Born radius scaling (c1)           1.5898E+00
        Born radii integrator          GBOBC
        Born offset                        0.0000E+00 a0       0.0000E+00 AA
        H-bond correction              true
        Ion screening                  false
        Surface tension                    1.0000E-05 Eh       1.5569E+01 dyn/cm
        Grid points                               230 per atom

          ...................................................
          :                      SETUP                      :
          :.................................................:
          :  # basis functions                 372          :
          :  # atomic orbitals                 372          :
          :  # shells                          220          :
          :  # electrons                       416          :
          :  max. iterations                   250          :
          :  Hamiltonian                  GFN2-xTB          :
          :  restarted?                      false          :
          :  GBSA solvation                   true          :
          :  PC potential                    false          :
          :  electronic temp.          300.0000000     K    :
          :  accuracy                    1.0000000          :
          :  -> integral cutoff          0.2500000E+02      :
          :  -> integral neglect         0.1000000E-07      :
          :  -> SCF convergence          0.1000000E-05 Eh   :
          :  -> wf. convergence          0.1000000E-03 e    :
          :  Broyden damping             0.4000000          :
          :  net charge                          0          :
          :  unpaired electrons                  0          :
          ...................................................

 iter      E             dE          RMSdq      gap      omega  full diag
   1   -242.1654413 -0.242165E+03  0.445E+00    2.50       0.0  T
   2   -242.3990690 -0.233628E+00  0.245E+00    2.02       1.0  T
   3   -242.3800752  0.189938E-01  0.105E+00    2.14       1.0  T
   4   -242.4220275 -0.419523E-01  0.305E-01    1.94       1.0  T
   5   -242.4278712 -0.584375E-02  0.126E-01    1.93       1.0  T
   6   -242.4287195 -0.848261E-03  0.632E-02    1.94       1.0  T
   7   -242.4288740 -0.154496E-03  0.268E-02    1.95       1.0  T
   8   -242.4289022 -0.282705E-04  0.115E-02    1.95       1.0  T
   9   -242.4289064 -0.412796E-05  0.603E-03    1.95       1.4  T
  10   -242.4289084 -0.204368E-05  0.276E-03    1.95       3.0  T
  11   -242.4289087 -0.297088E-06  0.147E-03    1.95       5.7  T
  12   -242.4289088 -0.652466E-07  0.652E-04    1.95      12.8  T
  13   -242.4289088 -0.185027E-07  0.297E-04    1.95      28.1  T

   *** convergence criteria satisfied after 13 iterations ***

         #    Occupation            Energy/Eh            Energy/eV
      -------------------------------------------------------------
         1        2.0000           -0.7754923             -21.1022
       ...           ...                  ...                  ...
       202        2.0000           -0.4137688             -11.2592
       203        2.0000           -0.4116411             -11.2013
       204        2.0000           -0.4002961             -10.8926
       205        2.0000           -0.3976803             -10.8214
       206        2.0000           -0.3905079             -10.6263
       207        2.0000           -0.3863113             -10.5121
       208        2.0000           -0.3752387             -10.2108 (HOMO)
       209                         -0.3036608              -8.2630 (LUMO)
       210                         -0.2952536              -8.0343
       211                         -0.2460624              -6.6957
       212                         -0.2450846              -6.6691
       213                         -0.2332921              -6.3482
       ...                                ...                  ...
       372                          0.6852815              18.6475
      -------------------------------------------------------------
                  HL-Gap            0.0715779 Eh            1.9477 eV
             Fermi-level           -0.3394498 Eh           -9.2369 eV

 SCC (total)                   0 d,  0 h,  0 min,  0.264 sec
 SCC setup                      ...        0 min,  0.003 sec (  1.114%)
 Dispersion                     ...        0 min,  0.004 sec (  1.502%)
 classical contributions        ...        0 min,  0.000 sec (  0.046%)
 integral evaluation            ...        0 min,  0.012 sec (  4.363%)
 iterations                     ...        0 min,  0.204 sec ( 77.382%)
 molecular gradient             ...        0 min,  0.039 sec ( 14.946%)
 printout                       ...        0 min,  0.002 sec (  0.632%)

         :::::::::::::::::::::::::::::::::::::::::::::::::::::
         ::                     SUMMARY                     ::
         :::::::::::::::::::::::::::::::::::::::::::::::::::::
         :: total energy            -239.815484990701 Eh    ::
         :: total w/o Gsasa/hb      -239.744168710544 Eh    ::
         :: gradient norm              0.125612434596 Eh/a0 ::
         :: HOMO-LUMO gap              1.947732552940 eV    ::
         ::.................................................::
         :: SCC energy              -242.413061389846 Eh    ::
         :: -> isotropic ES            0.545880507349 Eh    ::
         :: -> anisotropic ES         -0.024506019436 Eh    ::
         :: -> anisotropic XC          0.021268527550 Eh    ::
         :: -> dispersion             -0.206807294791 Eh    ::
         :: -> Gsolv                  -0.104158345997 Eh    ::
         ::    -> Gelec               -0.032842065840 Eh    ::
         ::    -> Gsasa               -0.029978706009 Eh    ::
         ::    -> Ghb                 -0.043677243524 Eh    ::
         ::    -> Gshift               0.002339669376 Eh    ::
         :: repulsion energy           2.597576399145 Eh    ::
         :: add. restraining           0.000000000000 Eh    ::
         :: total charge              -0.000000000000 e     ::
         :::::::::::::::::::::::::::::::::::::::::::::::::::::

           -------------------------------------------------
          |                Property Printout                |
           -------------------------------------------------

    * Orbital Energies and Occupations

         #    Occupation            Energy/Eh            Energy/eV
      -------------------------------------------------------------
         1        2.0000           -0.7754923             -21.1022
       ...           ...                  ...                  ...
       196        2.0000           -0.4229793             -11.5099
       197        2.0000           -0.4220060             -11.4834
       198        2.0000           -0.4190150             -11.4020
       199        2.0000           -0.4177948             -11.3688
       200        2.0000           -0.4169701             -11.3463
       201        2.0000           -0.4157394             -11.3128
       202        2.0000           -0.4137688             -11.2592
       203        2.0000           -0.4116411             -11.2013
       204        2.0000           -0.4002961             -10.8926
       205        2.0000           -0.3976803             -10.8214
       206        2.0000           -0.3905079             -10.6263
       207        2.0000           -0.3863113             -10.5121
       208        2.0000           -0.3752387             -10.2108 (HOMO)
       209                         -0.3036608              -8.2630 (LUMO)
       210                         -0.2952536              -8.0343
       211                         -0.2460624              -6.6957
       212                         -0.2450846              -6.6691
       213                         -0.2332921              -6.3482
       214                         -0.2324718              -6.3259
       215                         -0.2291113              -6.2344
       216                         -0.2272702              -6.1843
       217                         -0.2216852              -6.0324
       218                         -0.2140553              -5.8247
       219                         -0.1541270              -4.1940
       ...                                ...                  ...
       372                          0.6852815              18.6475
      -------------------------------------------------------------
                  HL-Gap            0.0715779 Eh            1.9477 eV
             Fermi-level           -0.3394498 Eh           -9.2369 eV

     #   Z          covCN         q      C6AA      α(0)
     1   6 C        2.841     0.132    25.099     8.210
     2   6 C        2.973    -0.054    29.347     8.886
     3   6 C        2.964     0.008    27.835     8.654
     4   6 C        2.929    -0.083    30.088     8.996
     5   6 C        2.837     0.151    24.725     8.149
     6   6 C        2.921    -0.101    30.548     9.064
     7   6 C        3.737     0.100    19.010     6.222
     8   6 C        3.719     0.101    19.027     6.231
     9   6 C        3.770     0.107    18.851     6.187
    10   6 C        3.740     0.090    19.160     6.245
    11   6 C        3.734     0.091    19.159     6.247
    12   8 O        1.693    -0.353    19.950     6.030
    13   6 C        3.682     0.078    19.484     6.321
    14   8 O        1.653    -0.487    22.615     6.420
    15   8 O        1.650    -0.478    22.426     6.393
    16   8 O        1.697    -0.345    19.796     6.007
    17   8 O        1.702    -0.302    19.026     5.889
    18   6 C        3.675     0.070    19.627     6.348
    19   8 O        1.652    -0.467    22.200     6.360
    20   6 C        3.631     0.239    17.241     5.978
    21   8 O        1.697    -0.345    19.797     6.007
    22   6 C        3.742     0.099    19.023     6.222
    23   6 C        3.722     0.091    19.180     6.255
    24   6 C        3.722     0.092    19.159     6.251
    25   6 C        3.732     0.084    19.273     6.266
    26   8 O        1.654    -0.474    22.337     6.380
    27   8 O        1.698    -0.327    19.477     5.958
    28   8 O        1.653    -0.477    22.400     6.389
    29   6 C        3.724     0.055    19.747     6.345
    30   8 O        1.703    -0.281    18.668     5.833
    31   6 C        2.745     0.353    21.015     7.506
    32   8 O        0.857    -0.448    22.662     6.382
    33   6 C        2.745     0.355    20.972     7.498
    34   6 C        2.896    -0.088    30.204     9.011
    35   8 O        0.858    -0.467    23.068     6.439
    36   6 C        2.902    -0.006    28.182     8.704
    37   6 C        2.898    -0.040    29.001     8.830
    38   6 C        2.897    -0.016    28.414     8.740
    39   6 C        3.806    -0.080    22.024     6.681
    40   6 C        3.728     0.120    18.715     6.176
    41   6 C        2.893    -0.062    29.543     8.912
    42   8 O        1.651    -0.504    22.985     6.472
    43   6 C        2.901    -0.033    28.831     8.804
    44   6 C        2.896    -0.055    29.360     8.884
    45   6 C        2.898    -0.033    28.825     8.803
    46   6 C        3.805    -0.067    21.787     6.645
    47   6 C        3.802    -0.058    21.617     6.619
    48   6 C        3.799    -0.061    21.683     6.630
    49   6 C        3.798    -0.055    21.572     6.613
    50   6 C        3.750    -0.103    22.525     6.769
    51   8 O        1.656    -0.451    21.857     6.311
    52   8 O        1.655    -0.433    21.499     6.259
    53   6 C        3.629     0.231    17.367     6.002
    54   6 C        3.722     0.078    19.393     6.289
    55   6 C        3.723     0.081    19.334     6.279
    56   6 C        3.723     0.071    19.494     6.305
    57   6 C        3.741     0.083    19.267     6.263
    58   8 O        1.695    -0.356    20.003     6.038
    59   6 C        3.675     0.066    19.692     6.359
    60   8 O        1.652    -0.464    22.140     6.352
    61   8 O        1.653    -0.473    22.329     6.379
    62   8 O        1.652    -0.489    22.666     6.427
    63   8 O        1.654    -0.475    22.351     6.382
    64   6 C        2.974    -0.033    28.827     8.807
    65   6 C        2.924    -0.027    28.666     8.780
    66   6 C        2.922    -0.051    29.265     8.871
    67   6 C        2.854     0.156    24.624     8.133
    68   6 C        2.921    -0.053    29.323     8.880
    69   6 C        2.924    -0.021    28.541     8.761
    70   8 O        1.702    -0.279    18.632     5.828
    71   6 C        2.853     0.137    25.001     8.195
    72   6 C        2.924    -0.053    29.326     8.881
    73   6 C        2.920    -0.032    28.805     8.801
    74   6 C        2.925    -0.040    28.989     8.830
    75   6 C        2.920    -0.033    28.821     8.804
    76   6 C        2.925    -0.057    29.425     8.896
    77   1 H        0.926     0.082     1.960     2.189
    78   1 H        0.926     0.070     2.084     2.257
    79   1 H        0.924     0.043     2.409     2.427
    80   1 H        0.923     0.056     2.244     2.343
    81   1 H        0.924     0.059     2.213     2.327
    82   1 H        0.923     0.070     2.090     2.261
    83   1 H        0.924     0.047     2.362     2.404
    84   1 H        0.924     0.037     2.489     2.467
    85   1 H        0.924     0.050     2.320     2.382
    86   1 H        0.804     0.347     0.595     1.211
    87   1 H        0.802     0.319     0.666     1.283
    88   1 H        0.924     0.068     2.105     2.269
    89   1 H        0.924     0.046     2.376     2.411
    90   1 H        0.802     0.331     0.636     1.253
    91   1 H        0.924     0.029     2.607     2.525
    92   1 H        0.923     0.050     2.321     2.382
    93   1 H        0.923     0.058     2.225     2.332
    94   1 H        0.923     0.050     2.317     2.380
    95   1 H        0.924     0.082     1.958     2.188
    96   1 H        0.804     0.364     0.556     1.171
    97   1 H        0.803     0.369     0.546     1.161
    98   1 H        0.924     0.108     1.710     2.045
    99   1 H        0.924     0.091     1.866     2.136
   100   1 H        0.926     0.090     1.877     2.143
   101   1 H        0.926     0.089     1.888     2.149
   102   1 H        0.926     0.062     2.178     2.308
   103   1 H        0.926     0.082     1.959     2.189
   104   1 H        0.924     0.063     2.169     2.303
   105   1 H        0.924     0.068     2.110     2.271
   106   1 H        0.923     0.035     2.516     2.480
   107   1 H        0.926     0.052     2.299     2.371
   108   1 H        0.804     0.347     0.596     1.213
   109   1 H        0.926     0.045     2.378     2.412
   110   1 H        0.926     0.048     2.339     2.392
   111   1 H        0.926     0.015     2.816     2.624
   112   1 H        0.924     0.053     2.281     2.362
   113   1 H        0.924     0.057     2.237     2.339
   114   1 H        0.924     0.023     2.684     2.562
   115   1 H        0.924     0.032     2.564     2.504
   116   1 H        0.924     0.035     2.513     2.479
   117   1 H        0.924     0.034     2.529     2.487
   118   1 H        0.924     0.033     2.545     2.495
   119   1 H        0.924     0.034     2.534     2.490
   120   1 H        0.925     0.030     2.580     2.512
   121   1 H        0.924     0.020     2.730     2.584
   122   1 H        0.924     0.041     2.438     2.442
   123   1 H        0.803     0.365     0.555     1.171
   124   1 H        0.803     0.356     0.576     1.192
   125   1 H        0.923     0.052     2.295     2.369
   126   1 H        0.924     0.038     2.474     2.460
   127   1 H        0.923     0.062     2.174     2.306
   128   1 H        0.923     0.078     2.005     2.214
   129   1 H        0.923     0.044     2.402     2.424
   130   1 H        0.924     0.078     1.998     2.211
   131   1 H        0.924     0.056     2.252     2.347
   132   1 H        0.802     0.321     0.661     1.278
   133   1 H        0.803     0.332     0.634     1.251
   134   1 H        0.803     0.344     0.603     1.220
   135   1 H        0.804     0.347     0.595     1.212
   136   1 H        0.926     0.074     2.041     2.234
   137   1 H        0.926     0.083     1.952     2.185
   138   1 H        0.926     0.072     2.068     2.249
   139   1 H        0.926     0.083     1.951     2.184
   140   1 H        0.926     0.058     2.218     2.329
   141   1 H        0.926     0.057     2.233     2.337
   142   1 H        0.926     0.054     2.269     2.355
   143   1 H        0.926     0.056     2.252     2.347
   144   1 H        0.926     0.035     2.514     2.480

 Mol. C6AA /au·bohr⁶  :     208678.591041
 Mol. C8AA /au·bohr⁸  :    4797022.781029
 Mol. α(0) /au        :        690.240558


Wiberg/Mayer (AO) data.
largest (>0.10) Wiberg bond orders for each atom

 ---------------------------------------------------------------------------
     #   Z sym  total        # sym  WBO       # sym  WBO       # sym  WBO
 ---------------------------------------------------------------------------
     1   6 C    3.939 --     6 C    1.392     2 C    1.335    51 O    1.064
     2   6 C    3.970 --     3 C    1.378     1 C    1.335     7 C    0.991
     3   6 C    3.987 --     4 C    1.425     2 C    1.378    13 C    1.009
     4   6 C    3.981 --     3 C    1.425     5 C    1.353    77 H    0.955
     5   6 C    3.946 --     6 C    1.374     4 C    1.353    52 O    1.084
     6   6 C    3.977 --     1 C    1.392     5 C    1.374    78 H    0.961
     7   6 C    3.939 --     2 C    0.991     8 C    0.955    12 O    0.950
                            79 H    0.940
     8   6 C    3.950 --    15 O    0.992     9 C    0.957     7 C    0.955
                            80 H    0.948
     9   6 C    3.934 --    10 C    0.966     8 C    0.957    17 O    0.951
                            81 H    0.930
    10   6 C    3.929 --     9 C    0.966    11 C    0.958    16 O    0.952
                            82 H    0.951
    11   6 C    3.947 --    18 C    0.980    12 O    0.970    10 C    0.958
                            83 H    0.937
    12   8 O    2.049 --    11 C    0.970     7 C    0.950
    13   6 C    3.958 --     3 C    1.009    14 O    0.991    85 H    0.952
                            84 H    0.951
    14   8 O    1.927 --    13 C    0.991    86 H    0.866
    15   8 O    1.948 --     8 C    0.992    87 H    0.855
    16   8 O    2.108 --    20 C    0.969    10 C    0.952
    17   8 O    2.251 --    33 C    1.057     9 C    0.951    35 O    0.135
    18   6 C    3.961 --    19 O    1.014    11 C    0.980    88 H    0.967
                            89 H    0.965
    19   8 O    1.943 --    18 C    1.014    90 H    0.842
    20   6 C    3.916 --    16 O    0.969    21 O    0.956    25 C    0.951
                            91 H    0.941
    21   8 O    2.077 --    20 C    0.956    22 C    0.953
    22   6 C    3.940 --    29 C    0.986    23 C    0.967    21 O    0.953
                            92 H    0.952
    23   6 C    3.967 --    28 O    1.010    24 C    0.968    22 C    0.967
                            93 H    0.955
    24   6 C    3.962 --    26 O    1.005    23 C    0.968    25 C    0.960
                            94 H    0.959
    25   6 C    3.936 --    27 O    0.964    24 C    0.960    95 H    0.954
                            20 C    0.951
    26   8 O    1.937 --    24 C    1.005    96 H    0.850
    27   8 O    2.083 --    53 C    0.980    25 C    0.964
    28   8 O    1.925 --    23 C    1.010    97 H    0.842
    29   6 C    3.914 --    22 C    0.986    99 H    0.959    30 O    0.951
                            98 H    0.949
    30   8 O    2.283 --    31 C    1.087    29 C    0.951    32 O    0.149
    31   6 C    3.896 --    32 O    1.679    30 O    1.087    64 C    1.028
    32   8 O    2.016 --    31 C    1.679    30 O    0.149
    33   6 C    3.896 --    35 O    1.641    34 C    1.089    17 O    1.057
    34   6 C    3.965 --    36 C    1.705    33 C    1.089   100 H    0.958
                            38 C    0.110
    35   8 O    1.978 --    33 C    1.641    17 O    0.135
    36   6 C    3.968 --    34 C    1.705    37 C    1.164   101 H    0.948
    37   6 C    3.987 --    38 C    1.767    36 C    1.164   102 H    0.959
    38   6 C    3.954 --    37 C    1.767    39 C    1.046   103 H    0.957
                            34 C    0.110
    39   6 C    3.985 --    38 C    1.046   104 H    0.968   105 H    0.962
                            40 C    0.936
    40   6 C    3.941 --    41 C    1.011    42 O    0.971   106 H    0.961
                            39 C    0.936
    41   6 C    3.985 --    43 C    1.827    40 C    1.011   107 H    0.965
                            45 C    0.127
    42   8 O    1.933 --    40 C    0.971   108 H    0.863
    43   6 C    3.989 --    41 C    1.827    44 C    1.124   109 H    0.951
    44   6 C    3.989 --    45 C    1.827    43 C    1.124   110 H    0.963
    45   6 C    3.984 --    44 C    1.827    46 C    1.033   111 H    0.964
                            41 C    0.127
    46   6 C    3.996 --    45 C    1.033    47 C    1.006   112 H    0.960
                           113 H    0.953
    47   6 C    3.995 --    48 C    1.008    46 C    1.006   114 H    0.972
                           115 H    0.964
    48   6 C    3.996 --    47 C    1.008    49 C    1.007   117 H    0.977
                           116 H    0.977
    49   6 C    3.997 --    50 C    1.021    48 C    1.007   119 H    0.977
                           118 H    0.977
    50   6 C    3.995 --    49 C    1.021   121 H    0.987   122 H    0.986
                           120 H    0.977
    51   8 O    2.072 --     1 C    1.064   123 H    0.847
    52   8 O    2.089 --     5 C    1.084   124 H    0.829
    53   6 C    3.921 --    27 O    0.980    58 O    0.962    54 C    0.954
                           125 H    0.950
    54   6 C    3.959 --    62 O    0.997    55 C    0.959    53 C    0.954
                           126 H    0.934
    55   6 C    3.958 --    61 O    1.001    56 C    0.961   127 H    0.960
                            54 C    0.959
    56   6 C    3.956 --    60 O    1.002    57 C    0.963    55 C    0.961
                           128 H    0.957
    57   6 C    3.933 --    59 C    0.981    56 C    0.963   129 H    0.957
                            58 O    0.948
    58   8 O    2.058 --    53 C    0.962    57 C    0.948
    59   6 C    3.957 --    63 O    1.011    57 C    0.981   130 H    0.966
                           131 H    0.965
    60   8 O    1.966 --    56 C    1.002   132 H    0.858
    61   8 O    1.946 --    55 C    1.001   133 H    0.863
    62   8 O    1.921 --    54 C    0.997   134 H    0.839
    63   8 O    1.933 --    59 C    1.011   135 H    0.863
    64   6 C    3.978 --    65 C    1.360    69 C    1.359    31 C    1.028
    65   6 C    3.986 --    66 C    1.479    64 C    1.360   136 H    0.964
    66   6 C    3.984 --    65 C    1.479    67 C    1.357   137 H    0.963
    67   6 C    3.936 --    68 C    1.359    66 C    1.357    70 O    1.042
    68   6 C    3.988 --    69 C    1.478    67 C    1.359   138 H    0.961
    69   6 C    3.983 --    68 C    1.478    64 C    1.359   139 H    0.956
    70   8 O    2.263 --    67 C    1.042    71 C    0.988
    71   6 C    3.919 --    76 C    1.385    72 C    1.383    70 O    0.988
                            74 C    0.105
    72   6 C    3.984 --    73 C    1.451    71 C    1.383   140 H    0.967
                            75 C    0.108
    73   6 C    3.990 --    72 C    1.451    74 C    1.434   141 H    0.968
                            76 C    0.108
    74   6 C    3.986 --    75 C    1.435    73 C    1.434   142 H    0.969
                            71 C    0.105
    75   6 C    3.990 --    76 C    1.449    74 C    1.435   143 H    0.967
                            72 C    0.108
    76   6 C    3.990 --    75 C    1.449    71 C    1.385   144 H    0.961
                            73 C    0.108
    77   1 H    0.993 --     4 C    0.955
    78   1 H    0.994 --     6 C    0.961
    79   1 H    0.997 --     7 C    0.940
    80   1 H    0.997 --     8 C    0.948
    81   1 H    0.996 --     9 C    0.930
    82   1 H    0.995 --    10 C    0.951
    83   1 H    0.998 --    11 C    0.937
    84   1 H    0.998 --    13 C    0.951
    85   1 H    0.997 --    13 C    0.952
    86   1 H    0.879 --    14 O    0.866
    87   1 H    0.898 --    15 O    0.855
    88   1 H    0.995 --    18 C    0.967
    89   1 H    0.997 --    18 C    0.965
    90   1 H    0.891 --    19 O    0.842
    91   1 H    0.999 --    20 C    0.941
    92   1 H    0.997 --    22 C    0.952
    93   1 H    0.996 --    23 C    0.955
    94   1 H    0.997 --    24 C    0.959
    95   1 H    0.993 --    25 C    0.954
    96   1 H    0.867 --    26 O    0.850
    97   1 H    0.864 --    28 O    0.842
    98   1 H    0.988 --    29 C    0.949
    99   1 H    0.990 --    29 C    0.959
   100   1 H    0.991 --    34 C    0.958
   101   1 H    0.992 --    36 C    0.948
   102   1 H    0.996 --    37 C    0.959
   103   1 H    0.993 --    38 C    0.957
   104   1 H    0.996 --    39 C    0.968
   105   1 H    0.991 --    39 C    0.962
   106   1 H    0.996 --    40 C    0.961
   107   1 H    0.997 --    41 C    0.965
   108   1 H    0.879 --    42 O    0.863
   109   1 H    0.998 --    43 C    0.951
   110   1 H    0.997 --    44 C    0.963
   111   1 H    1.000 --    45 C    0.964
   112   1 H    0.997 --    46 C    0.960
   113   1 H    0.996 --    46 C    0.953
   114   1 H    0.999 --    47 C    0.972
   115   1 H    0.999 --    47 C    0.964
   116   1 H    0.999 --    48 C    0.977
   117   1 H    0.999 --    48 C    0.977
   118   1 H    0.999 --    49 C    0.977
   119   1 H    0.998 --    49 C    0.977
   120   1 H    0.999 --    50 C    0.977
   121   1 H    0.999 --    50 C    0.987
   122   1 H    0.998 --    50 C    0.986
   123   1 H    0.866 --    51 O    0.847
   124   1 H    0.873 --    52 O    0.829
   125   1 H    0.997 --    53 C    0.950
   126   1 H    0.998 --    54 C    0.934
   127   1 H    0.996 --    55 C    0.960
   128   1 H    0.994 --    56 C    0.957
   129   1 H    0.998 --    57 C    0.957
   130   1 H    0.993 --    59 C    0.966
   131   1 H    0.997 --    59 C    0.965
   132   1 H    0.897 --    60 O    0.858
   133   1 H    0.890 --    61 O    0.863
   134   1 H    0.881 --    62 O    0.839
   135   1 H    0.879 --    63 O    0.863
   136   1 H    0.994 --    65 C    0.964
   137   1 H    0.993 --    66 C    0.963
   138   1 H    0.994 --    68 C    0.961
   139   1 H    0.993 --    69 C    0.956
   140   1 H    0.997 --    72 C    0.967
   141   1 H    0.996 --    73 C    0.968
   142   1 H    0.997 --    74 C    0.969
   143   1 H    0.997 --    75 C    0.967
   144   1 H    0.999 --    76 C    0.961
 ---------------------------------------------------------------------------

Topologies differ in total number of bonds
Writing topology from bond orders to xtbtopo.mol

molecular dipole:
                 x           y           z       tot (Debye)
 q only:       -4.004      -1.354      -0.449
   full:       -3.579      -1.433      -0.087       9.803
molecular quadrupole (traceless):
                xx          xy          yy          xz          yz          zz
 q only:       25.210      36.204     -12.565      33.972      40.978     -12.644
  q+dip:       19.944      35.676     -12.077      42.522      46.884      -7.868
   full:       19.008      35.003      -8.819      41.046      46.721     -10.189


           -------------------------------------------------
          | TOTAL ENERGY             -239.815484990701 Eh   |
          | GRADIENT NORM               0.125612434596 Eh/α |
          | HOMO-LUMO GAP               1.947732552940 eV   |
           -------------------------------------------------

------------------------------------------------------------------------
 * finished run on 2026/06/19 at 18:52:42.997     
------------------------------------------------------------------------
 total:
 * wall-time:     0 d,  0 h,  0 min,  0.331 sec
 *  cpu-time:     0 d,  0 h,  0 min,  5.126 sec
 * ratio c/w:    15.485 speedup
 SCF:
 * wall-time:     0 d,  0 h,  0 min,  0.265 sec
 *  cpu-time:     0 d,  0 h,  0 min,  4.219 sec
 * ratio c/w:    15.916 speedup

normal termination of xtb
