      -----------------------------------------------------------      
     |                   =====================                   |     
     |                           x T B                           |     
     |                   =====================                   |     
     |                         S. Grimme                         |     
     |          Mulliken Center for Theoretical Chemistry        |     
     |                    University of Bonn                     |     
      -----------------------------------------------------------      

   * xtb version 6.7.1 (edcfbbe) compiled by 'albert@albert-system' on 2024-07-22

   xtb is free software: you can redistribute it and/or modify it under
   the terms of the GNU Lesser General Public License as published by
   the Free Software Foundation, either version 3 of the License, or
   (at your option) any later version.
   
   xtb is distributed in the hope that it will be useful,
   but WITHOUT ANY WARRANTY; without even the implied warranty of
   MERCHANTABILITY or FITNESS FOR A PARTICULAR PURPOSE.  See the
   GNU Lesser General Public License for more details.
   
   Cite this work as:
   * C. Bannwarth, E. Caldeweyher, S. Ehlert, A. Hansen, P. Pracht,
     J. Seibert, S. Spicher, S. Grimme, WIREs Comput. Mol. Sci., 2020, 11,
     e01493. DOI: 10.1002/wcms.1493
   
   for GFN2-xTB:
   * C. Bannwarth, S. Ehlert and S. Grimme., J. Chem. Theory Comput., 2019,
     15, 1652-1671. DOI: 10.1021/acs.jctc.8b01176
   for GFN1-xTB:
   * S. Grimme, C. Bannwarth, P. Shushkov, J. Chem. Theory Comput., 2017,
     13, 1989-2009. DOI: 10.1021/acs.jctc.7b00118
   for GFN0-xTB:
   * P. Pracht, E. Caldeweyher, S. Ehlert, S. Grimme, ChemRxiv, 2019, preprint.
     DOI: 10.26434/chemrxiv.8326202.v1
   for GFN-FF:
   * S. Spicher and S. Grimme, Angew. Chem. Int. Ed., 2020, 59, 15665-15673.
     DOI: 10.1002/anie.202004239
   
   for ALPB and GBSA implicit solvation:
   * S. Ehlert, M. Stahn, S. Spicher, S. Grimme, J. Chem. Theory Comput.,
     2021, 17, 4250-4261. DOI: 10.1021/acs.jctc.1c00471
   
   for ddCOSMO and CPCM-X implicit solvation:
   * M. Stahn, S. Ehlert, S. Grimme, J. Phys. Chem. A,
     2023, XX, XXXX-XXXX. DOI: 10.1021/acs.jpca.3c04382
   
   for DFT-D4:
   * E. Caldeweyher, C. Bannwarth and S. Grimme, J. Chem. Phys., 2017,
     147, 034112. DOI: 10.1063/1.4993215
   * E. Caldeweyher, S. Ehlert, A. Hansen, H. Neugebauer, S. Spicher,
     C. Bannwarth and S. Grimme, J. Chem. Phys., 2019, 150, 154122.
     DOI: 10.1063/1.5090222
   * E. Caldeweyher, J.-M. Mewes, S. Ehlert and S. Grimme, Phys. Chem. Chem. Phys.
     2020, 22, 8499-8512. DOI: 10.1039/D0CP00502A
   
   for sTDA-xTB:
   * S. Grimme and C. Bannwarth, J. Chem. Phys., 2016, 145, 054103.
     DOI: 10.1063/1.4959605
   
   in the mass-spec context:
   * V. Asgeirsson, C. Bauer and S. Grimme, Chem. Sci., 2017, 8, 4879.
     DOI: 10.1039/c7sc00601b
   * J. Koopman and S. Grimme, ACS Omega 2019, 4, 12, 15120-15133.
     DOI: 10.1021/acsomega.9b02011
   
   for metadynamics refer to:
   * S. Grimme, J. Chem. Theory Comput., 2019, 155, 2847-2862
     DOI: 10.1021/acs.jctc.9b00143
   
   for SPH calculations refer to:
   * S. Spicher and S. Grimme, J. Chem. Theory Comput., 2021, 17, 1701-1714
     DOI: 10.1021/acs.jctc.0c01306
   
   for ONIOM refer to:
   * C. Plett, A. Katbashev, S. Ehlert, S. Grimme, M. Bursch,
     Phys. Chem. Chem. Phys., 2023, 25, 17860-17868. DOI: 10.1039/D3CP02178E
   
   for DIPRO refer to:
   * J. Kohn, N. Gildemeister, S. Grimme, D. Fazzi, A. Hansen,
     J. Chem. Phys., 2023, just accepted.
   
   for PTB refer to:
   * S. Grimme, M. Mueller, A. Hansen, J. Chem. Phys., 2023, 158, 124111.
     DOI: 10.1063/5.0137838
   
   with help from (in alphabetical order)
   P. Atkinson, C. Bannwarth, F. Bohle, G. Brandenburg, E. Caldeweyher
   M. Checinski, S. Dohm, S. Ehlert, S. Ehrlich, I. Gerasimov, C. Hölzer
   A. Katbashev, J. Kohn, J. Koopman, C. Lavigne, S. Lehtola, F. März, M. Müller,
   F. Musil, H. Neugebauer, J. Pisarek, C. Plett, P. Pracht, F. Pultar,
   J. Seibert, P. Shushkov, S. Spicher, M. Stahn, M. Steiner, T. Strunk,
   J. Stückrath, T. Rose, and J. Unsleber
   
 * started run on 2026/06/19 at 18:52:43.690     
   ID    Z sym.   atoms
    1    6 C      1-11, 13, 18, 20, 22-25, 29, 31, 33, 34, 36-41, 43-50,
                  53-57, 59, 64-69, 71-76
    2    8 O      12, 14-17, 19, 21, 26-28, 30, 32, 35, 42, 51, 52, 58,
                  60-63, 70
    3    1 H      77-144

           -------------------------------------------------
          |                Calculation Setup                |
           -------------------------------------------------

          program call               : xtb PAPU-0082/conf03.xyz --gfn 2 --alpb water --chrg 0 --uhf 0 --namespace PAPU-0082/conf03_water
          hostname                   : cpu10
          calculation namespace      : PAPU-0082/conf03_water
          coordinate file            : PAPU-0082/conf03.xyz
          omp threads                :                    16


           -------------------------------------------------
          |                 G F N 2 - x T B                 |
           -------------------------------------------------

        Reference                      10.1021/acs.jctc.8b01176
      * Hamiltonian:
        H0-scaling (s, p, d)           1.850000    2.230000    2.230000
        zeta-weighting                 0.500000
      * Dispersion:
        s8                             2.700000
        a1                             0.520000
        a2                             5.000000
        s9                             5.000000
      * Repulsion:
        kExp                           1.500000    1.000000
        rExp                           1.000000
      * Coulomb:
        alpha                          2.000000
        third order                    shell-resolved
        anisotropic                    true
        a3                             3.000000
        a5                             4.000000
        cn-shift                       1.200000
        cn-exp                         4.000000
        max-rad                        5.000000

      * Solvation model:               ALPB
        Solvent                        water
        Parameter file                 internal GFN2-xTB/ALPB
        Dielectric constant                8.0200E+01
        Reference state                gsolv [1 M gas/solution]
        Free energy shift                  1.0808E-03 Eh       6.7819E-01 kcal/mol
        Temperature                        2.9815E+02 K
        Density                            1.0000E+00 kg/L
        Solvent mass                       1.8000E+01 g/mol
        Interaction kernel             P16
        Born radius scaling (c1)           1.4744E+00
        Born radii integrator          GBOBC
        Born offset                        0.0000E+00 a0       0.0000E+00 AA
        H-bond correction              true
        Ion screening                  false
        Surface tension                    1.0000E-05 Eh       1.5569E+01 dyn/cm
        Grid points                               230 per atom

          ...................................................
          :                      SETUP                      :
          :.................................................:
          :  # basis functions                 372          :
          :  # atomic orbitals                 372          :
          :  # shells                          220          :
          :  # electrons                       416          :
          :  max. iterations                   250          :
          :  Hamiltonian                  GFN2-xTB          :
          :  restarted?                      false          :
          :  GBSA solvation                   true          :
          :  PC potential                    false          :
          :  electronic temp.          300.0000000     K    :
          :  accuracy                    1.0000000          :
          :  -> integral cutoff          0.2500000E+02      :
          :  -> integral neglect         0.1000000E-07      :
          :  -> SCF convergence          0.1000000E-05 Eh   :
          :  -> wf. convergence          0.1000000E-03 e    :
          :  Broyden damping             0.4000000          :
          :  net charge                          0          :
          :  unpaired electrons                  0          :
          ...................................................

 iter      E             dE          RMSdq      gap      omega  full diag
   1   -242.1421377 -0.242142E+03  0.453E+00    2.66       0.0  T
   2   -242.3799189 -0.237781E+00  0.247E+00    2.22       1.0  T
   3   -242.3624998  0.174191E-01  0.102E+00    2.29       1.0  T
   4   -242.4000332 -0.375334E-01  0.325E-01    2.11       1.0  T
   5   -242.4063830 -0.634984E-02  0.131E-01    2.11       1.0  T
   6   -242.4071390 -0.755996E-03  0.696E-02    2.11       1.0  T
   7   -242.4073000 -0.161047E-03  0.316E-02    2.12       1.0  T
   8   -242.4073400 -0.399926E-04  0.140E-02    2.11       1.0  T
   9   -242.4073465 -0.646300E-05  0.739E-03    2.11       1.1  T
  10   -242.4073483 -0.181087E-05  0.429E-03    2.11       1.9  T
  11   -242.4073492 -0.917428E-06  0.238E-03    2.11       3.5  T
  12   -242.4073495 -0.229514E-06  0.965E-04    2.11       8.6  T
  13   -242.4073495 -0.509559E-07  0.479E-04    2.11      17.4  T

   *** convergence criteria satisfied after 13 iterations ***

         #    Occupation            Energy/Eh            Energy/eV
      -------------------------------------------------------------
         1        2.0000           -0.7671143             -20.8742
       ...           ...                  ...                  ...
       202        2.0000           -0.4050848             -11.0229
       203        2.0000           -0.4038547             -10.9894
       204        2.0000           -0.3917873             -10.6611
       205        2.0000           -0.3878164             -10.5530
       206        2.0000           -0.3859234             -10.5015
       207        2.0000           -0.3751931             -10.2095
       208        2.0000           -0.3711647             -10.0999 (HOMO)
       209                         -0.2935726              -7.9885 (LUMO)
       210                         -0.2906455              -7.9089
       211                         -0.2404130              -6.5420
       212                         -0.2387118              -6.4957
       213                         -0.2268442              -6.1727
       ...                                ...                  ...
       372                          0.6882098              18.7271
      -------------------------------------------------------------
                  HL-Gap            0.0775921 Eh            2.1114 eV
             Fermi-level           -0.3323687 Eh           -9.0442 eV

 SCC (total)                   0 d,  0 h,  0 min,  0.266 sec
 SCC setup                      ...        0 min,  0.003 sec (  1.128%)
 Dispersion                     ...        0 min,  0.004 sec (  1.568%)
 classical contributions        ...        0 min,  0.000 sec (  0.048%)
 integral evaluation            ...        0 min,  0.012 sec (  4.341%)
 iterations                     ...        0 min,  0.205 sec ( 77.157%)
 molecular gradient             ...        0 min,  0.040 sec ( 14.900%)
 printout                       ...        0 min,  0.002 sec (  0.841%)

         :::::::::::::::::::::::::::::::::::::::::::::::::::::
         ::                     SUMMARY                     ::
         :::::::::::::::::::::::::::::::::::::::::::::::::::::
         :: total energy            -239.795050050538 Eh    ::
         :: total w/o Gsasa/hb      -239.762044232859 Eh    ::
         :: gradient norm              0.120076145362 Eh/a0 ::
         :: HOMO-LUMO gap              2.111388233689 eV    ::
         ::.................................................::
         :: SCC energy              -242.391643509461 Eh    ::
         :: -> isotropic ES            0.567169252020 Eh    ::
         :: -> anisotropic ES         -0.027239321896 Eh    ::
         :: -> anisotropic XC          0.022275162035 Eh    ::
         :: -> dispersion             -0.205510997825 Eh    ::
         :: -> Gsolv                  -0.089644771121 Eh    ::
         ::    -> Gelec               -0.056638953442 Eh    ::
         ::    -> Gsasa                0.006576817325 Eh    ::
         ::    -> Ghb                 -0.040663394702 Eh    ::
         ::    -> Gshift               0.001080759698 Eh    ::
         :: repulsion energy           2.596593458923 Eh    ::
         :: add. restraining           0.000000000000 Eh    ::
         :: total charge              -0.000000000000 e     ::
         :::::::::::::::::::::::::::::::::::::::::::::::::::::

           -------------------------------------------------
          |                Property Printout                |
           -------------------------------------------------

    * Orbital Energies and Occupations

         #    Occupation            Energy/Eh            Energy/eV
      -------------------------------------------------------------
         1        2.0000           -0.7671143             -20.8742
       ...           ...                  ...                  ...
       196        2.0000           -0.4175579             -11.3623
       197        2.0000           -0.4156413             -11.3102
       198        2.0000           -0.4143710             -11.2756
       199        2.0000           -0.4128372             -11.2339
       200        2.0000           -0.4084013             -11.1132
       201        2.0000           -0.4069783             -11.0744
       202        2.0000           -0.4050848             -11.0229
       203        2.0000           -0.4038547             -10.9894
       204        2.0000           -0.3917873             -10.6611
       205        2.0000           -0.3878164             -10.5530
       206        2.0000           -0.3859234             -10.5015
       207        2.0000           -0.3751931             -10.2095
       208        2.0000           -0.3711647             -10.0999 (HOMO)
       209                         -0.2935726              -7.9885 (LUMO)
       210                         -0.2906455              -7.9089
       211                         -0.2404130              -6.5420
       212                         -0.2387118              -6.4957
       213                         -0.2268442              -6.1727
       214                         -0.2230703              -6.0701
       215                         -0.2226947              -6.0598
       216                         -0.2208044              -6.0084
       217                         -0.2179146              -5.9298
       218                         -0.2078599              -5.6562
       219                         -0.1507757              -4.1028
       ...                                ...                  ...
       372                          0.6882098              18.7271
      -------------------------------------------------------------
                  HL-Gap            0.0775921 Eh            2.1114 eV
             Fermi-level           -0.3323687 Eh           -9.0442 eV

     #   Z          covCN         q      C6AA      α(0)
     1   6 C        2.842     0.130    25.148     8.218
     2   6 C        2.973    -0.052    29.282     8.876
     3   6 C        2.963     0.009    27.809     8.650
     4   6 C        2.929    -0.079    29.984     8.980
     5   6 C        2.837     0.146    24.811     8.163
     6   6 C        2.921    -0.101    30.535     9.062
     7   6 C        3.737     0.101    18.994     6.219
     8   6 C        3.720     0.103    18.991     6.224
     9   6 C        3.760     0.112    18.786     6.179
    10   6 C        3.734     0.100    19.015     6.224
    11   6 C        3.734     0.091    19.153     6.246
    12   8 O        1.693    -0.359    20.066     6.048
    13   6 C        3.681     0.087    19.342     6.298
    14   8 O        1.653    -0.499    22.863     6.455
    15   8 O        1.650    -0.486    22.603     6.418
    16   8 O        1.696    -0.346    19.819     6.011
    17   8 O        1.702    -0.287    18.774     5.850
    18   6 C        3.675     0.079    19.479     6.324
    19   8 O        1.652    -0.476    22.381     6.386
    20   6 C        3.624     0.241    17.247     5.985
    21   8 O        1.696    -0.356    19.994     6.037
    22   6 C        3.738     0.100    19.004     6.220
    23   6 C        3.723     0.094    19.130     6.246
    24   6 C        3.723     0.098    19.063     6.235
    25   6 C        3.739     0.093    19.110     6.237
    26   8 O        1.654    -0.484    22.542     6.409
    27   8 O        1.698    -0.334    19.599     5.977
    28   8 O        1.653    -0.494    22.767     6.441
    29   6 C        3.724     0.061    19.650     6.330
    30   8 O        1.703    -0.274    18.550     5.815
    31   6 C        2.745     0.354    20.990     7.502
    32   8 O        0.857    -0.465    23.021     6.433
    33   6 C        2.735     0.359    20.912     7.487
    34   6 C        2.894    -0.085    30.126     8.999
    35   8 O        0.857    -0.485    23.454     6.493
    36   6 C        2.903    -0.005    28.158     8.701
    37   6 C        2.897    -0.040    28.984     8.827
    38   6 C        2.898    -0.015    28.392     8.737
    39   6 C        3.806    -0.077    21.964     6.672
    40   6 C        3.728     0.120    18.712     6.176
    41   6 C        2.893    -0.059    29.474     8.901
    42   8 O        1.652    -0.509    23.088     6.486
    43   6 C        2.900    -0.035    28.866     8.809
    44   6 C        2.897    -0.053    29.306     8.876
    45   6 C        2.897    -0.039    28.972     8.825
    46   6 C        3.805    -0.065    21.743     6.638
    47   6 C        3.803    -0.050    21.465     6.596
    48   6 C        3.799    -0.062    21.685     6.630
    49   6 C        3.799    -0.053    21.522     6.606
    50   6 C        3.750    -0.102    22.516     6.767
    51   8 O        1.656    -0.457    21.995     6.331
    52   8 O        1.656    -0.439    21.612     6.276
    53   6 C        3.629     0.229    17.397     6.007
    54   6 C        3.721     0.079    19.375     6.286
    55   6 C        3.723     0.089    19.215     6.260
    56   6 C        3.723     0.081    19.337     6.280
    57   6 C        3.737     0.089    19.181     6.250
    58   8 O        1.695    -0.363    20.136     6.058
    59   6 C        3.675     0.072    19.597     6.343
    60   8 O        1.653    -0.473    22.319     6.377
    61   8 O        1.652    -0.477    22.395     6.388
    62   8 O        1.653    -0.482    22.515     6.405
    63   8 O        1.654    -0.489    22.664     6.427
    64   6 C        2.974    -0.028    28.686     8.785
    65   6 C        2.924    -0.024    28.602     8.770
    66   6 C        2.921    -0.047    29.165     8.856
    67   6 C        2.855     0.154    24.657     8.139
    68   6 C        2.921    -0.049    29.211     8.863
    69   6 C        2.924    -0.017    28.427     8.743
    70   8 O        1.702    -0.287    18.763     5.848
    71   6 C        2.854     0.134    25.072     8.207
    72   6 C        2.924    -0.053    29.314     8.879
    73   6 C        2.920    -0.034    28.842     8.807
    74   6 C        2.925    -0.040    29.006     8.832
    75   6 C        2.920    -0.031    28.783     8.798
    76   6 C        2.925    -0.055    29.365     8.887
    77   1 H        0.926     0.081     1.969     2.194
    78   1 H        0.926     0.067     2.116     2.275
    79   1 H        0.924     0.046     2.365     2.405
    80   1 H        0.923     0.060     2.202     2.321
    81   1 H        0.924     0.057     2.234     2.337
    82   1 H        0.923     0.064     2.148     2.292
    83   1 H        0.924     0.052     2.298     2.371
    84   1 H        0.924     0.031     2.569     2.506
    85   1 H        0.924     0.043     2.408     2.427
    86   1 H        0.804     0.360     0.565     1.181
    87   1 H        0.802     0.329     0.640     1.257
    88   1 H        0.924     0.063     2.164     2.300
    89   1 H        0.924     0.039     2.461     2.453
    90   1 H        0.802     0.329     0.640     1.257
    91   1 H        0.924     0.027     2.625     2.534
    92   1 H        0.923     0.063     2.169     2.303
    93   1 H        0.923     0.061     2.189     2.314
    94   1 H        0.923     0.045     2.379     2.412
    95   1 H        0.924     0.076     2.022     2.224
    96   1 H        0.804     0.372     0.540     1.155
    97   1 H        0.803     0.378     0.528     1.141
    98   1 H        0.924     0.099     1.790     2.092
    99   1 H        0.924     0.098     1.806     2.101
   100   1 H        0.926     0.086     1.917     2.165
   101   1 H        0.926     0.084     1.938     2.177
   102   1 H        0.926     0.055     2.264     2.353
   103   1 H        0.926     0.081     1.970     2.195
   104   1 H        0.924     0.057     2.233     2.337
   105   1 H        0.924     0.071     2.072     2.251
   106   1 H        0.923     0.036     2.508     2.477
   107   1 H        0.926     0.046     2.364     2.405
   108   1 H        0.804     0.359     0.569     1.185
   109   1 H        0.926     0.051     2.310     2.377
   110   1 H        0.926     0.043     2.403     2.424
   111   1 H        0.926     0.024     2.673     2.557
   112   1 H        0.924     0.050     2.321     2.382
   113   1 H        0.924     0.055     2.261     2.351
   114   1 H        0.924     0.018     2.761     2.599
   115   1 H        0.924     0.017     2.781     2.608
   116   1 H        0.924     0.036     2.502     2.474
   117   1 H        0.924     0.035     2.514     2.480
   118   1 H        0.924     0.018     2.765     2.601
   119   1 H        0.923     0.035     2.521     2.483
   120   1 H        0.924     0.028     2.616     2.529
   121   1 H        0.924     0.036     2.509     2.477
   122   1 H        0.924     0.038     2.476     2.461
   123   1 H        0.804     0.376     0.531     1.145
   124   1 H        0.803     0.358     0.570     1.186
   125   1 H        0.923     0.044     2.391     2.418
   126   1 H        0.924     0.070     2.082     2.257
   127   1 H        0.923     0.049     2.327     2.386
   128   1 H        0.923     0.071     2.073     2.252
   129   1 H        0.923     0.043     2.411     2.428
   130   1 H        0.924     0.076     2.016     2.220
   131   1 H        0.924     0.049     2.338     2.391
   132   1 H        0.802     0.320     0.664     1.280
   133   1 H        0.803     0.334     0.627     1.244
   134   1 H        0.804     0.355     0.577     1.193
   135   1 H        0.804     0.354     0.579     1.195
   136   1 H        0.926     0.078     2.001     2.212
   137   1 H        0.926     0.083     1.951     2.184
   138   1 H        0.926     0.067     2.117     2.275
   139   1 H        0.926     0.077     2.013     2.219
   140   1 H        0.926     0.055     2.262     2.352
   141   1 H        0.926     0.056     2.246     2.344
   142   1 H        0.926     0.055     2.257     2.350
   143   1 H        0.926     0.059     2.213     2.326
   144   1 H        0.926     0.036     2.502     2.473

 Mol. C6AA /au·bohr⁶  :     208886.803204
 Mol. C8AA /au·bohr⁸  :    4799729.877483
 Mol. α(0) /au        :        690.559651


Wiberg/Mayer (AO) data.
largest (>0.10) Wiberg bond orders for each atom

 ---------------------------------------------------------------------------
     #   Z sym  total        # sym  WBO       # sym  WBO       # sym  WBO
 ---------------------------------------------------------------------------
     1   6 C    3.941 --     6 C    1.392     2 C    1.336    51 O    1.065
     2   6 C    3.970 --     3 C    1.377     1 C    1.336     7 C    0.991
     3   6 C    3.987 --     4 C    1.424     2 C    1.377    13 C    1.009
     4   6 C    3.981 --     3 C    1.424     5 C    1.354    77 H    0.953
     5   6 C    3.945 --     6 C    1.375     4 C    1.354    52 O    1.083
     6   6 C    3.977 --     1 C    1.392     5 C    1.375    78 H    0.962
     7   6 C    3.937 --     2 C    0.991     8 C    0.956    12 O    0.949
                            79 H    0.937
     8   6 C    3.952 --    15 O    0.993     9 C    0.965     7 C    0.956
                            80 H    0.948
     9   6 C    3.933 --     8 C    0.965    10 C    0.961    17 O    0.949
                            81 H    0.947
    10   6 C    3.929 --     9 C    0.961    11 C    0.958    16 O    0.952
                            82 H    0.951
    11   6 C    3.947 --    18 C    0.981    12 O    0.969    10 C    0.958
                            83 H    0.933
    12   8 O    2.046 --    11 C    0.969     7 C    0.949
    13   6 C    3.959 --     3 C    1.009    14 O    0.992    85 H    0.953
                            84 H    0.950
    14   8 O    1.918 --    13 C    0.992    86 H    0.857
    15   8 O    1.937 --     8 C    0.993    87 H    0.845
    16   8 O    2.098 --    20 C    0.971    10 C    0.952
    17   8 O    2.274 --    33 C    1.079     9 C    0.949    35 O    0.142
    18   6 C    3.960 --    19 O    1.010    11 C    0.981    88 H    0.968
                            89 H    0.965
    19   8 O    1.936 --    18 C    1.010    90 H    0.845
    20   6 C    3.917 --    16 O    0.971    21 O    0.953    25 C    0.951
                            91 H    0.947
    21   8 O    2.073 --    20 C    0.953    22 C    0.947
    22   6 C    3.936 --    29 C    0.987    23 C    0.968    92 H    0.950
                            21 O    0.947
    23   6 C    3.965 --    28 O    1.007    24 C    0.968    22 C    0.968
                            93 H    0.955
    24   6 C    3.962 --    26 O    1.004    23 C    0.968    25 C    0.963
                            94 H    0.959
    25   6 C    3.937 --    27 O    0.965    24 C    0.963    95 H    0.951
                            20 C    0.951
    26   8 O    1.930 --    24 C    1.004    96 H    0.843
    27   8 O    2.075 --    53 C    0.973    25 C    0.965
    28   8 O    1.915 --    23 C    1.007    97 H    0.835
    29   6 C    3.912 --    22 C    0.987    99 H    0.957    98 H    0.952
                            30 O    0.949
    30   8 O    2.293 --    31 C    1.093    29 C    0.949    32 O    0.149
    31   6 C    3.896 --    32 O    1.668    30 O    1.093    64 C    1.031
    32   8 O    2.003 --    31 C    1.668    30 O    0.149
    33   6 C    3.893 --    35 O    1.640    17 O    1.079    34 C    1.070
    34   6 C    3.965 --    36 C    1.723    33 C    1.070   100 H    0.953
                            38 C    0.116
    35   8 O    1.968 --    33 C    1.640    17 O    0.142
    36   6 C    3.971 --    34 C    1.723    37 C    1.161   101 H    0.948
    37   6 C    3.987 --    38 C    1.771    36 C    1.161   102 H    0.960
    38   6 C    3.959 --    37 C    1.771    39 C    1.046   103 H    0.956
                            34 C    0.116
    39   6 C    3.986 --    38 C    1.046   104 H    0.970   105 H    0.959
                            40 C    0.937
    40   6 C    3.944 --    41 C    1.011    42 O    0.973   106 H    0.961
                            39 C    0.937
    41   6 C    3.980 --    43 C    1.837    40 C    1.011   107 H    0.965
                            45 C    0.118
    42   8 O    1.930 --    40 C    0.973   108 H    0.855
    43   6 C    3.989 --    41 C    1.837    44 C    1.115   109 H    0.950
    44   6 C    3.989 --    45 C    1.837    43 C    1.115   110 H    0.962
    45   6 C    3.984 --    44 C    1.837    46 C    1.031   111 H    0.963
                            41 C    0.118
    46   6 C    3.997 --    45 C    1.031    47 C    1.005   112 H    0.963
                           113 H    0.952
    47   6 C    3.995 --    48 C    1.009    46 C    1.005   115 H    0.972
                           114 H    0.967
    48   6 C    3.996 --    47 C    1.009    49 C    1.006   116 H    0.977
                           117 H    0.976
    49   6 C    3.997 --    50 C    1.021    48 C    1.006   119 H    0.977
                           118 H    0.977
    50   6 C    3.994 --    49 C    1.021   122 H    0.987   121 H    0.984
                           120 H    0.976
    51   8 O    2.065 --     1 C    1.065   123 H    0.839
    52   8 O    2.085 --     5 C    1.083   124 H    0.827
    53   6 C    3.918 --    27 O    0.973    58 O    0.962   125 H    0.950
                            54 C    0.949
    54   6 C    3.955 --    62 O    1.003    55 C    0.967    53 C    0.949
                           126 H    0.940
    55   6 C    3.962 --    61 O    1.003    54 C    0.967   127 H    0.958
                            56 C    0.957
    56   6 C    3.957 --    60 O    1.004    57 C    0.961   128 H    0.958
                            55 C    0.957
    57   6 C    3.933 --    59 C    0.983    56 C    0.961   129 H    0.958
                            58 O    0.945
    58   8 O    2.055 --    53 C    0.962    57 C    0.945
    59   6 C    3.956 --    63 O    1.007    57 C    0.983   131 H    0.966
                           130 H    0.966
    60   8 O    1.952 --    56 C    1.004   132 H    0.852
    61   8 O    1.942 --    55 C    1.003   133 H    0.845
    62   8 O    1.942 --    54 C    1.003   134 H    0.856
    63   8 O    1.924 --    59 C    1.007   135 H    0.859
    64   6 C    3.979 --    69 C    1.358    65 C    1.358    31 C    1.031
    65   6 C    3.986 --    66 C    1.479    64 C    1.358   136 H    0.963
    66   6 C    3.984 --    65 C    1.479    67 C    1.358   137 H    0.963
    67   6 C    3.934 --    68 C    1.360    66 C    1.358    70 O    1.036
    68   6 C    3.989 --    69 C    1.478    67 C    1.360   138 H    0.962
    69   6 C    3.984 --    68 C    1.478    64 C    1.358   139 H    0.959
    70   8 O    2.254 --    67 C    1.036    71 C    0.986
    71   6 C    3.918 --    76 C    1.385    72 C    1.383    70 O    0.986
                            74 C    0.105
    72   6 C    3.984 --    73 C    1.451    71 C    1.383   140 H    0.968
                            75 C    0.108
    73   6 C    3.990 --    72 C    1.451    74 C    1.434   141 H    0.968
                            76 C    0.108
    74   6 C    3.986 --    75 C    1.435    73 C    1.434   142 H    0.969
                            71 C    0.105
    75   6 C    3.989 --    76 C    1.450    74 C    1.435   143 H    0.966
                            72 C    0.108
    76   6 C    3.989 --    75 C    1.450    71 C    1.385   144 H    0.960
                            73 C    0.108
    77   1 H    0.993 --     4 C    0.953
    78   1 H    0.995 --     6 C    0.962
    79   1 H    0.997 --     7 C    0.937
    80   1 H    0.996 --     8 C    0.948
    81   1 H    0.996 --     9 C    0.947
    82   1 H    0.995 --    10 C    0.951
    83   1 H    0.997 --    11 C    0.933
    84   1 H    0.999 --    13 C    0.950
    85   1 H    0.998 --    13 C    0.953
    86   1 H    0.870 --    14 O    0.857
    87   1 H    0.891 --    15 O    0.845
    88   1 H    0.996 --    18 C    0.968
    89   1 H    0.998 --    18 C    0.965
    90   1 H    0.892 --    19 O    0.845
    91   1 H    0.999 --    20 C    0.947
    92   1 H    0.996 --    22 C    0.950
    93   1 H    0.996 --    23 C    0.955
    94   1 H    0.998 --    24 C    0.959
    95   1 H    0.994 --    25 C    0.951
    96   1 H    0.861 --    26 O    0.843
    97   1 H    0.857 --    28 O    0.835
    98   1 H    0.990 --    29 C    0.952
    99   1 H    0.989 --    29 C    0.957
   100   1 H    0.992 --    34 C    0.953
   101   1 H    0.993 --    36 C    0.948
   102   1 H    0.997 --    37 C    0.960
   103   1 H    0.993 --    38 C    0.956
   104   1 H    0.996 --    39 C    0.970
   105   1 H    0.990 --    39 C    0.959
   106   1 H    0.996 --    40 C    0.961
   107   1 H    0.997 --    41 C    0.965
   108   1 H    0.871 --    42 O    0.855
   109   1 H    0.997 --    43 C    0.950
   110   1 H    0.998 --    44 C    0.962
   111   1 H    0.999 --    45 C    0.963
   112   1 H    0.997 --    46 C    0.963
   113   1 H    0.991 --    46 C    0.952
   114   1 H    1.000 --    47 C    0.967
   115   1 H    1.000 --    47 C    0.972
   116   1 H    0.998 --    48 C    0.977
   117   1 H    0.999 --    48 C    0.976
   118   1 H    1.000 --    49 C    0.977
   119   1 H    0.998 --    49 C    0.977
   120   1 H    0.999 --    50 C    0.976
   121   1 H    0.999 --    50 C    0.984
   122   1 H    0.999 --    50 C    0.987
   123   1 H    0.858 --    51 O    0.839
   124   1 H    0.871 --    52 O    0.827
   125   1 H    0.997 --    53 C    0.950
   126   1 H    0.995 --    54 C    0.940
   127   1 H    0.997 --    55 C    0.958
   128   1 H    0.995 --    56 C    0.958
   129   1 H    0.998 --    57 C    0.958
   130   1 H    0.994 --    59 C    0.966
   131   1 H    0.998 --    59 C    0.966
   132   1 H    0.898 --    60 O    0.852
   133   1 H    0.888 --    61 O    0.845
   134   1 H    0.874 --    62 O    0.856
   135   1 H    0.875 --    63 O    0.859
   136   1 H    0.993 --    65 C    0.963
   137   1 H    0.993 --    66 C    0.963
   138   1 H    0.995 --    68 C    0.962
   139   1 H    0.994 --    69 C    0.959
   140   1 H    0.997 --    72 C    0.968
   141   1 H    0.996 --    73 C    0.968
   142   1 H    0.997 --    74 C    0.969
   143   1 H    0.996 --    75 C    0.966
   144   1 H    0.999 --    76 C    0.960
 ---------------------------------------------------------------------------

Topologies differ in total number of bonds
Writing topology from bond orders to xtbtopo.mol

molecular dipole:
                 x           y           z       tot (Debye)
 q only:       -3.372      -1.098       0.902
   full:       -2.693      -1.227       1.417       8.340
molecular quadrupole (traceless):
                xx          xy          yy          xz          yz          zz
 q only:       40.933      28.557     -18.731      48.763      33.454     -22.202
  q+dip:       40.474      25.458     -18.901      57.113      36.343     -21.573
   full:       38.596      25.275     -16.158      55.734      35.640     -22.438


           -------------------------------------------------
          | TOTAL ENERGY             -239.795050050538 Eh   |
          | GRADIENT NORM               0.120076145362 Eh/α |
          | HOMO-LUMO GAP               2.111388233689 eV   |
           -------------------------------------------------

------------------------------------------------------------------------
 * finished run on 2026/06/19 at 18:52:44.009     
------------------------------------------------------------------------
 total:
 * wall-time:     0 d,  0 h,  0 min,  0.318 sec
 *  cpu-time:     0 d,  0 h,  0 min,  4.857 sec
 * ratio c/w:    15.278 speedup
 SCF:
 * wall-time:     0 d,  0 h,  0 min,  0.267 sec
 *  cpu-time:     0 d,  0 h,  0 min,  4.205 sec
 * ratio c/w:    15.769 speedup

normal termination of xtb
