      -----------------------------------------------------------      
     |                   =====================                   |     
     |                           x T B                           |     
     |                   =====================                   |     
     |                         S. Grimme                         |     
     |          Mulliken Center for Theoretical Chemistry        |     
     |                    University of Bonn                     |     
      -----------------------------------------------------------      

   * xtb version 6.7.1 (edcfbbe) compiled by 'albert@albert-system' on 2024-07-22

   xtb is free software: you can redistribute it and/or modify it under
   the terms of the GNU Lesser General Public License as published by
   the Free Software Foundation, either version 3 of the License, or
   (at your option) any later version.
   
   xtb is distributed in the hope that it will be useful,
   but WITHOUT ANY WARRANTY; without even the implied warranty of
   MERCHANTABILITY or FITNESS FOR A PARTICULAR PURPOSE.  See the
   GNU Lesser General Public License for more details.
   
   Cite this work as:
   * C. Bannwarth, E. Caldeweyher, S. Ehlert, A. Hansen, P. Pracht,
     J. Seibert, S. Spicher, S. Grimme, WIREs Comput. Mol. Sci., 2020, 11,
     e01493. DOI: 10.1002/wcms.1493
   
   for GFN2-xTB:
   * C. Bannwarth, S. Ehlert and S. Grimme., J. Chem. Theory Comput., 2019,
     15, 1652-1671. DOI: 10.1021/acs.jctc.8b01176
   for GFN1-xTB:
   * S. Grimme, C. Bannwarth, P. Shushkov, J. Chem. Theory Comput., 2017,
     13, 1989-2009. DOI: 10.1021/acs.jctc.7b00118
   for GFN0-xTB:
   * P. Pracht, E. Caldeweyher, S. Ehlert, S. Grimme, ChemRxiv, 2019, preprint.
     DOI: 10.26434/chemrxiv.8326202.v1
   for GFN-FF:
   * S. Spicher and S. Grimme, Angew. Chem. Int. Ed., 2020, 59, 15665-15673.
     DOI: 10.1002/anie.202004239
   
   for ALPB and GBSA implicit solvation:
   * S. Ehlert, M. Stahn, S. Spicher, S. Grimme, J. Chem. Theory Comput.,
     2021, 17, 4250-4261. DOI: 10.1021/acs.jctc.1c00471
   
   for ddCOSMO and CPCM-X implicit solvation:
   * M. Stahn, S. Ehlert, S. Grimme, J. Phys. Chem. A,
     2023, XX, XXXX-XXXX. DOI: 10.1021/acs.jpca.3c04382
   
   for DFT-D4:
   * E. Caldeweyher, C. Bannwarth and S. Grimme, J. Chem. Phys., 2017,
     147, 034112. DOI: 10.1063/1.4993215
   * E. Caldeweyher, S. Ehlert, A. Hansen, H. Neugebauer, S. Spicher,
     C. Bannwarth and S. Grimme, J. Chem. Phys., 2019, 150, 154122.
     DOI: 10.1063/1.5090222
   * E. Caldeweyher, J.-M. Mewes, S. Ehlert and S. Grimme, Phys. Chem. Chem. Phys.
     2020, 22, 8499-8512. DOI: 10.1039/D0CP00502A
   
   for sTDA-xTB:
   * S. Grimme and C. Bannwarth, J. Chem. Phys., 2016, 145, 054103.
     DOI: 10.1063/1.4959605
   
   in the mass-spec context:
   * V. Asgeirsson, C. Bauer and S. Grimme, Chem. Sci., 2017, 8, 4879.
     DOI: 10.1039/c7sc00601b
   * J. Koopman and S. Grimme, ACS Omega 2019, 4, 12, 15120-15133.
     DOI: 10.1021/acsomega.9b02011
   
   for metadynamics refer to:
   * S. Grimme, J. Chem. Theory Comput., 2019, 155, 2847-2862
     DOI: 10.1021/acs.jctc.9b00143
   
   for SPH calculations refer to:
   * S. Spicher and S. Grimme, J. Chem. Theory Comput., 2021, 17, 1701-1714
     DOI: 10.1021/acs.jctc.0c01306
   
   for ONIOM refer to:
   * C. Plett, A. Katbashev, S. Ehlert, S. Grimme, M. Bursch,
     Phys. Chem. Chem. Phys., 2023, 25, 17860-17868. DOI: 10.1039/D3CP02178E
   
   for DIPRO refer to:
   * J. Kohn, N. Gildemeister, S. Grimme, D. Fazzi, A. Hansen,
     J. Chem. Phys., 2023, just accepted.
   
   for PTB refer to:
   * S. Grimme, M. Mueller, A. Hansen, J. Chem. Phys., 2023, 158, 124111.
     DOI: 10.1063/5.0137838
   
   with help from (in alphabetical order)
   P. Atkinson, C. Bannwarth, F. Bohle, G. Brandenburg, E. Caldeweyher
   M. Checinski, S. Dohm, S. Ehlert, S. Ehrlich, I. Gerasimov, C. Hölzer
   A. Katbashev, J. Kohn, J. Koopman, C. Lavigne, S. Lehtola, F. März, M. Müller,
   F. Musil, H. Neugebauer, J. Pisarek, C. Plett, P. Pracht, F. Pultar,
   J. Seibert, P. Shushkov, S. Spicher, M. Stahn, M. Steiner, T. Strunk,
   J. Stückrath, T. Rose, and J. Unsleber
   
 * started run on 2026/06/19 at 18:52:43.368     
   ID    Z sym.   atoms
    1    6 C      1-11, 13, 18, 20, 22-25, 29, 31, 33, 34, 36-41, 43-50,
                  53-57, 59, 64-69, 71-76
    2    8 O      12, 14-17, 19, 21, 26-28, 30, 32, 35, 42, 51, 52, 58,
                  60-63, 70
    3    1 H      77-144

           -------------------------------------------------
          |                Calculation Setup                |
           -------------------------------------------------

          program call               : xtb PAPU-0082/conf02.xyz --gfn 2 --alpb octanol --chrg 0 --uhf 0 --namespace PAPU-0082/conf02_octanol
          hostname                   : cpu10
          calculation namespace      : PAPU-0082/conf02_octanol
          coordinate file            : PAPU-0082/conf02.xyz
          omp threads                :                    16


           -------------------------------------------------
          |                 G F N 2 - x T B                 |
           -------------------------------------------------

        Reference                      10.1021/acs.jctc.8b01176
      * Hamiltonian:
        H0-scaling (s, p, d)           1.850000    2.230000    2.230000
        zeta-weighting                 0.500000
      * Dispersion:
        s8                             2.700000
        a1                             0.520000
        a2                             5.000000
        s9                             5.000000
      * Repulsion:
        kExp                           1.500000    1.000000
        rExp                           1.000000
      * Coulomb:
        alpha                          2.000000
        third order                    shell-resolved
        anisotropic                    true
        a3                             3.000000
        a5                             4.000000
        cn-shift                       1.200000
        cn-exp                         4.000000
        max-rad                        5.000000

      * Solvation model:               ALPB
        Solvent                        octanol
        Parameter file                 internal GFN2-xTB/ALPB
        Dielectric constant                9.8629E+00
        Reference state                gsolv [1 M gas/solution]
        Free energy shift                  2.3397E-03 Eh       1.4682E+00 kcal/mol
        Temperature                        2.9815E+02 K
        Density                            8.3000E-01 kg/L
        Solvent mass                       1.3023E+02 g/mol
        Interaction kernel             P16
        Born radius scaling (c1)           1.5898E+00
        Born radii integrator          GBOBC
        Born offset                        0.0000E+00 a0       0.0000E+00 AA
        H-bond correction              true
        Ion screening                  false
        Surface tension                    1.0000E-05 Eh       1.5569E+01 dyn/cm
        Grid points                               230 per atom

          ...................................................
          :                      SETUP                      :
          :.................................................:
          :  # basis functions                 372          :
          :  # atomic orbitals                 372          :
          :  # shells                          220          :
          :  # electrons                       416          :
          :  max. iterations                   250          :
          :  Hamiltonian                  GFN2-xTB          :
          :  restarted?                      false          :
          :  GBSA solvation                   true          :
          :  PC potential                    false          :
          :  electronic temp.          300.0000000     K    :
          :  accuracy                    1.0000000          :
          :  -> integral cutoff          0.2500000E+02      :
          :  -> integral neglect         0.1000000E-07      :
          :  -> SCF convergence          0.1000000E-05 Eh   :
          :  -> wf. convergence          0.1000000E-03 e    :
          :  Broyden damping             0.4000000          :
          :  net charge                          0          :
          :  unpaired electrons                  0          :
          ...................................................

 iter      E             dE          RMSdq      gap      omega  full diag
   1   -242.1504186 -0.242150E+03  0.451E+00    2.69       0.0  T
   2   -242.3970072 -0.246589E+00  0.248E+00    2.18       1.0  T
   3   -242.3806160  0.163912E-01  0.107E+00    2.24       1.0  T
   4   -242.4198708 -0.392548E-01  0.308E-01    2.05       1.0  T
   5   -242.4257984 -0.592755E-02  0.128E-01    2.04       1.0  T
   6   -242.4265908 -0.792448E-03  0.653E-02    2.05       1.0  T
   7   -242.4267462 -0.155335E-03  0.278E-02    2.06       1.0  T
   8   -242.4267761 -0.298799E-04  0.120E-02    2.06       1.0  T
   9   -242.4267807 -0.466254E-05  0.642E-03    2.07       1.3  T
  10   -242.4267828 -0.209282E-05  0.302E-03    2.07       2.8  T
  11   -242.4267831 -0.330990E-06  0.168E-03    2.06       5.0  T
  12   -242.4267832 -0.875544E-07  0.747E-04    2.06      11.2  T
  13   -242.4267833 -0.273182E-07  0.341E-04    2.06      24.4  T

   *** convergence criteria satisfied after 13 iterations ***

         #    Occupation            Energy/Eh            Energy/eV
      -------------------------------------------------------------
         1        2.0000           -0.7725465             -21.0221
       ...           ...                  ...                  ...
       202        2.0000           -0.4145825             -11.2814
       203        2.0000           -0.4098093             -11.1515
       204        2.0000           -0.3982856             -10.8379
       205        2.0000           -0.3933279             -10.7030
       206        2.0000           -0.3890692             -10.5871
       207        2.0000           -0.3830050             -10.4221
       208        2.0000           -0.3777571             -10.2793 (HOMO)
       209                         -0.3018799              -8.2146 (LUMO)
       210                         -0.2961745              -8.0593
       211                         -0.2457667              -6.6877
       212                         -0.2452250              -6.6729
       213                         -0.2292839              -6.2391
       ...                                ...                  ...
       372                          0.6822401              18.5647
      -------------------------------------------------------------
                  HL-Gap            0.0758771 Eh            2.0647 eV
             Fermi-level           -0.3398185 Eh           -9.2469 eV

 SCC (total)                   0 d,  0 h,  0 min,  0.261 sec
 SCC setup                      ...        0 min,  0.003 sec (  1.296%)
 Dispersion                     ...        0 min,  0.005 sec (  1.758%)
 classical contributions        ...        0 min,  0.000 sec (  0.047%)
 integral evaluation            ...        0 min,  0.011 sec (  4.263%)
 iterations                     ...        0 min,  0.200 sec ( 76.718%)
 molecular gradient             ...        0 min,  0.040 sec ( 15.195%)
 printout                       ...        0 min,  0.002 sec (  0.708%)

         :::::::::::::::::::::::::::::::::::::::::::::::::::::
         ::                     SUMMARY                     ::
         :::::::::::::::::::::::::::::::::::::::::::::::::::::
         :: total energy            -239.814584346787 Eh    ::
         :: total w/o Gsasa/hb      -239.745289516570 Eh    ::
         :: gradient norm              0.125404000852 Eh/a0 ::
         :: HOMO-LUMO gap              2.064722343429 eV    ::
         ::.................................................::
         :: SCC energy              -242.411067394926 Eh    ::
         :: -> isotropic ES            0.541416656033 Eh    ::
         :: -> anisotropic ES         -0.024251907575 Eh    ::
         :: -> anisotropic XC          0.022249346606 Eh    ::
         :: -> dispersion             -0.206321364499 Eh    ::
         :: -> Gsolv                  -0.100140378779 Eh    ::
         ::    -> Gelec               -0.030845548562 Eh    ::
         ::    -> Gsasa               -0.029930065222 Eh    ::
         ::    -> Ghb                 -0.041704434370 Eh    ::
         ::    -> Gshift               0.002339669376 Eh    ::
         :: repulsion energy           2.596483048139 Eh    ::
         :: add. restraining           0.000000000000 Eh    ::
         :: total charge              -0.000000000000 e     ::
         :::::::::::::::::::::::::::::::::::::::::::::::::::::

           -------------------------------------------------
          |                Property Printout                |
           -------------------------------------------------

    * Orbital Energies and Occupations

         #    Occupation            Energy/Eh            Energy/eV
      -------------------------------------------------------------
         1        2.0000           -0.7725465             -21.0221
       ...           ...                  ...                  ...
       196        2.0000           -0.4245414             -11.5524
       197        2.0000           -0.4218166             -11.4782
       198        2.0000           -0.4210909             -11.4585
       199        2.0000           -0.4185555             -11.3895
       200        2.0000           -0.4177894             -11.3686
       201        2.0000           -0.4148919             -11.2898
       202        2.0000           -0.4145825             -11.2814
       203        2.0000           -0.4098093             -11.1515
       204        2.0000           -0.3982856             -10.8379
       205        2.0000           -0.3933279             -10.7030
       206        2.0000           -0.3890692             -10.5871
       207        2.0000           -0.3830050             -10.4221
       208        2.0000           -0.3777571             -10.2793 (HOMO)
       209                         -0.3018799              -8.2146 (LUMO)
       210                         -0.2961745              -8.0593
       211                         -0.2457667              -6.6877
       212                         -0.2452250              -6.6729
       213                         -0.2292839              -6.2391
       214                         -0.2289247              -6.2294
       215                         -0.2266508              -6.1675
       216                         -0.2260157              -6.1502
       217                         -0.2251518              -6.1267
       218                         -0.2087604              -5.6807
       219                         -0.1584790              -4.3124
       ...                                ...                  ...
       372                          0.6822401              18.5647
      -------------------------------------------------------------
                  HL-Gap            0.0758771 Eh            2.0647 eV
             Fermi-level           -0.3398185 Eh           -9.2469 eV

     #   Z          covCN         q      C6AA      α(0)
     1   6 C        2.840     0.131    25.132     8.216
     2   6 C        2.975    -0.069    29.704     8.940
     3   6 C        2.964     0.010    27.798     8.648
     4   6 C        2.930    -0.082    30.043     8.989
     5   6 C        2.837     0.150    24.744     8.152
     6   6 C        2.921    -0.086    30.161     9.006
     7   6 C        3.741     0.098    19.037     6.225
     8   6 C        3.723     0.091    19.178     6.254
     9   6 C        3.756     0.108    18.862     6.192
    10   6 C        3.730     0.089    19.200     6.255
    11   6 C        3.737     0.091    19.148     6.244
    12   8 O        1.693    -0.347    19.834     6.013
    13   6 C        3.682     0.079    19.456     6.317
    14   8 O        1.653    -0.487    22.610     6.419
    15   8 O        1.652    -0.481    22.490     6.402
    16   8 O        1.696    -0.345    19.796     6.007
    17   8 O        1.702    -0.293    18.877     5.866
    18   6 C        3.675     0.072    19.603     6.344
    19   8 O        1.652    -0.466    22.181     6.358
    20   6 C        3.613     0.241    17.297     6.003
    21   8 O        1.695    -0.363    20.128     6.057
    22   6 C        3.732     0.098    19.049     6.230
    23   6 C        3.724     0.089    19.213     6.259
    24   6 C        3.724     0.091    19.170     6.252
    25   6 C        3.738     0.088    19.195     6.252
    26   8 O        1.654    -0.472    22.300     6.375
    27   8 O        1.698    -0.325    19.428     5.951
    28   8 O        1.653    -0.478    22.433     6.394
    29   6 C        3.726     0.056    19.730     6.342
    30   8 O        1.703    -0.273    18.520     5.810
    31   6 C        2.746     0.351    21.035     7.510
    32   8 O        0.857    -0.456    22.830     6.406
    33   6 C        2.731     0.361    20.879     7.481
    34   6 C        2.894    -0.093    30.343     9.031
    35   8 O        0.857    -0.472    23.177     6.455
    36   6 C        2.903    -0.005    28.151     8.700
    37   6 C        2.896    -0.043    29.057     8.838
    38   6 C        2.897    -0.016    28.417     8.740
    39   6 C        3.805    -0.080    22.030     6.682
    40   6 C        3.728     0.119    18.729     6.179
    41   6 C        2.893    -0.060    29.500     8.905
    42   8 O        1.651    -0.503    22.962     6.469
    43   6 C        2.901    -0.035    28.872     8.810
    44   6 C        2.896    -0.051    29.265     8.870
    45   6 C        2.897    -0.042    29.032     8.834
    46   6 C        3.805    -0.064    21.727     6.636
    47   6 C        3.802    -0.051    21.495     6.601
    48   6 C        3.800    -0.062    21.689     6.631
    49   6 C        3.798    -0.057    21.607     6.619
    50   6 C        3.750    -0.104    22.551     6.773
    51   8 O        1.654    -0.432    21.484     6.257
    52   8 O        1.655    -0.433    21.507     6.260
    53   6 C        3.628     0.225    17.453     6.017
    54   6 C        3.722     0.074    19.453     6.299
    55   6 C        3.723     0.084    19.280     6.270
    56   6 C        3.723     0.076    19.423     6.294
    57   6 C        3.738     0.083    19.280     6.266
    58   8 O        1.695    -0.359    20.055     6.046
    59   6 C        3.675     0.067    19.678     6.356
    60   8 O        1.653    -0.470    22.253     6.368
    61   8 O        1.652    -0.472    22.308     6.376
    62   8 O        1.653    -0.467    22.199     6.360
    63   8 O        1.654    -0.474    22.332     6.379
    64   6 C        2.975    -0.035    28.862     8.812
    65   6 C        2.924    -0.029    28.730     8.790
    66   6 C        2.921    -0.049    29.217     8.864
    67   6 C        2.854     0.158    24.584     8.127
    68   6 C        2.921    -0.054    29.348     8.884
    69   6 C        2.924    -0.021    28.529     8.759
    70   8 O        1.702    -0.277    18.603     5.823
    71   6 C        2.853     0.137    24.996     8.194
    72   6 C        2.924    -0.053    29.314     8.879
    73   6 C        2.920    -0.032    28.808     8.802
    74   6 C        2.925    -0.040    28.993     8.830
    75   6 C        2.920    -0.033    28.823     8.804
    76   6 C        2.925    -0.057    29.421     8.895
    77   1 H        0.926     0.086     1.916     2.164
    78   1 H        0.926     0.080     1.976     2.198
    79   1 H        0.924     0.032     2.560     2.502
    80   1 H        0.923     0.072     2.060     2.244
    81   1 H        0.924     0.059     2.213     2.326
    82   1 H        0.923     0.072     2.059     2.244
    83   1 H        0.924     0.044     2.399     2.422
    84   1 H        0.924     0.038     2.474     2.460
    85   1 H        0.924     0.048     2.351     2.398
    86   1 H        0.804     0.347     0.595     1.212
    87   1 H        0.802     0.312     0.687     1.302
    88   1 H        0.924     0.068     2.103     2.268
    89   1 H        0.924     0.041     2.431     2.438
    90   1 H        0.802     0.333     0.631     1.248
    91   1 H        0.924     0.019     2.752     2.594
    92   1 H        0.923     0.050     2.325     2.385
    93   1 H        0.923     0.063     2.159     2.298
    94   1 H        0.923     0.048     2.348     2.396
    95   1 H        0.924     0.085     1.929     2.172
    96   1 H        0.804     0.364     0.556     1.171
    97   1 H        0.803     0.370     0.543     1.158
    98   1 H        0.924     0.108     1.711     2.046
    99   1 H        0.924     0.094     1.844     2.124
   100   1 H        0.926     0.093     1.846     2.125
   101   1 H        0.926     0.083     1.944     2.181
   102   1 H        0.926     0.061     2.183     2.310
   103   1 H        0.926     0.085     1.928     2.172
   104   1 H        0.924     0.060     2.199     2.319
   105   1 H        0.924     0.071     2.078     2.254
   106   1 H        0.923     0.034     2.526     2.486
   107   1 H        0.926     0.052     2.291     2.367
   108   1 H        0.804     0.346     0.597     1.213
   109   1 H        0.926     0.051     2.306     2.375
   110   1 H        0.926     0.051     2.313     2.378
   111   1 H        0.926     0.022     2.705     2.572
   112   1 H        0.924     0.049     2.334     2.389
   113   1 H        0.924     0.042     2.427     2.436
   114   1 H        0.924     0.010     2.884     2.656
   115   1 H        0.924     0.036     2.506     2.476
   116   1 H        0.924     0.039     2.465     2.455
   117   1 H        0.924     0.028     2.612     2.527
   118   1 H        0.923     0.036     2.509     2.477
   119   1 H        0.924     0.037     2.489     2.467
   120   1 H        0.924     0.008     2.923     2.674
   121   1 H        0.924     0.052     2.298     2.370
   122   1 H        0.924     0.039     2.468     2.457
   123   1 H        0.802     0.325     0.651     1.268
   124   1 H        0.803     0.357     0.573     1.189
   125   1 H        0.923     0.040     2.445     2.445
   126   1 H        0.924     0.071     2.078     2.254
   127   1 H        0.923     0.045     2.381     2.413
   128   1 H        0.923     0.076     2.024     2.225
   129   1 H        0.923     0.042     2.426     2.436
   130   1 H        0.924     0.078     1.995     2.209
   131   1 H        0.924     0.052     2.298     2.371
   132   1 H        0.802     0.319     0.668     1.284
   133   1 H        0.803     0.344     0.603     1.220
   134   1 H        0.804     0.345     0.601     1.218
   135   1 H        0.804     0.345     0.599     1.216
   136   1 H        0.926     0.076     2.022     2.224
   137   1 H        0.926     0.085     1.925     2.170
   138   1 H        0.926     0.073     2.054     2.241
   139   1 H        0.926     0.079     1.988     2.205
   140   1 H        0.926     0.058     2.224     2.332
   141   1 H        0.926     0.057     2.234     2.338
   142   1 H        0.926     0.054     2.266     2.354
   143   1 H        0.926     0.058     2.224     2.332
   144   1 H        0.926     0.037     2.491     2.468

 Mol. C6AA /au·bohr⁶  :     208678.226602
 Mol. C8AA /au·bohr⁸  :    4796978.150979
 Mol. α(0) /au        :        690.269840


Wiberg/Mayer (AO) data.
largest (>0.10) Wiberg bond orders for each atom

 ---------------------------------------------------------------------------
     #   Z sym  total        # sym  WBO       # sym  WBO       # sym  WBO
 ---------------------------------------------------------------------------
     1   6 C    3.937 --     6 C    1.394     2 C    1.337    51 O    1.054
     2   6 C    3.966 --     3 C    1.375     1 C    1.337     7 C    0.992
     3   6 C    3.988 --     4 C    1.426     2 C    1.375    13 C    1.009
     4   6 C    3.981 --     3 C    1.426     5 C    1.351    77 H    0.954
     5   6 C    3.946 --     6 C    1.379     4 C    1.351    52 O    1.083
     6   6 C    3.979 --     1 C    1.394     5 C    1.379    78 H    0.962
     7   6 C    3.941 --     2 C    0.992    12 O    0.953     8 C    0.946
                            79 H    0.938
     8   6 C    3.946 --    15 O    0.993     9 C    0.965    80 H    0.949
                             7 C    0.946
     9   6 C    3.938 --     8 C    0.965    10 C    0.961    17 O    0.951
                            81 H    0.943
    10   6 C    3.926 --     9 C    0.961    11 C    0.957    16 O    0.950
                            82 H    0.948
    11   6 C    3.948 --    18 C    0.980    12 O    0.970    10 C    0.957
                            83 H    0.936
    12   8 O    2.055 --    11 C    0.970     7 C    0.953
    13   6 C    3.958 --     3 C    1.009    14 O    0.991    85 H    0.953
                            84 H    0.951
    14   8 O    1.926 --    13 C    0.991    86 H    0.866
    15   8 O    1.953 --     8 C    0.993    87 H    0.852
    16   8 O    2.096 --    20 C    0.974    10 C    0.950
    17   8 O    2.262 --    33 C    1.064     9 C    0.951    35 O    0.139
    18   6 C    3.962 --    19 O    1.016    11 C    0.980    88 H    0.967
                            89 H    0.964
    19   8 O    1.939 --    18 C    1.016    90 H    0.844
    20   6 C    3.917 --    16 O    0.974    25 C    0.951    21 O    0.946
                            91 H    0.946
    21   8 O    2.080 --    20 C    0.946    22 C    0.939
    22   6 C    3.934 --    29 C    0.985    23 C    0.969    92 H    0.955
                            21 O    0.939
    23   6 C    3.967 --    28 O    1.009    24 C    0.969    22 C    0.969
                            93 H    0.954
    24   6 C    3.964 --    26 O    1.005    23 C    0.969    25 C    0.963
                            94 H    0.958
    25   6 C    3.938 --    27 O    0.968    24 C    0.963    20 C    0.951
                            95 H    0.950
    26   8 O    1.937 --    24 C    1.005    96 H    0.849
    27   8 O    2.082 --    53 C    0.974    25 C    0.968
    28   8 O    1.924 --    23 C    1.009    97 H    0.841
    29   6 C    3.917 --    22 C    0.985    30 O    0.959    99 H    0.958
                            98 H    0.948
    30   8 O    2.283 --    31 C    1.092    29 C    0.959    32 O    0.150
    31   6 C    3.898 --    32 O    1.668    30 O    1.092    64 C    1.037
    32   8 O    2.007 --    31 C    1.668    30 O    0.150
    33   6 C    3.894 --    35 O    1.650    34 C    1.075    17 O    1.064
    34   6 C    3.963 --    36 C    1.716    33 C    1.075   100 H    0.953
                            38 C    0.115
    35   8 O    1.975 --    33 C    1.650    17 O    0.139
    36   6 C    3.970 --    34 C    1.716    37 C    1.164   101 H    0.949
    37   6 C    3.986 --    38 C    1.767    36 C    1.164   102 H    0.959
    38   6 C    3.956 --    37 C    1.767    39 C    1.046   103 H    0.955
                            34 C    0.115
    39   6 C    3.987 --    38 C    1.046   104 H    0.970   105 H    0.956
                            40 C    0.941
    40   6 C    3.943 --    41 C    1.008    42 O    0.970   106 H    0.962
                            39 C    0.941
    41   6 C    3.976 --    43 C    1.841    40 C    1.008   107 H    0.965
                            45 C    0.119
    42   8 O    1.933 --    40 C    0.970   108 H    0.863
    43   6 C    3.989 --    41 C    1.841    44 C    1.115   109 H    0.948
    44   6 C    3.989 --    45 C    1.836    43 C    1.115   110 H    0.961
    45   6 C    3.985 --    44 C    1.836    46 C    1.033   111 H    0.961
                            41 C    0.119
    46   6 C    3.995 --    45 C    1.033    47 C    0.993   112 H    0.973
                           113 H    0.951
    47   6 C    3.992 --    48 C    1.008    46 C    0.993   115 H    0.977
                           114 H    0.969
    48   6 C    3.996 --    47 C    1.008    49 C    1.007   117 H    0.977
                           116 H    0.976
    49   6 C    3.996 --    50 C    1.021    48 C    1.007   119 H    0.977
                           118 H    0.977
    50   6 C    3.993 --    49 C    1.021   120 H    0.984   121 H    0.981
                           122 H    0.975
    51   8 O    2.078 --     1 C    1.054   123 H    0.859
    52   8 O    2.085 --     5 C    1.083   124 H    0.831
    53   6 C    3.920 --    27 O    0.974    58 O    0.963   125 H    0.950
                            54 C    0.949
    54   6 C    3.957 --    62 O    1.005    55 C    0.966    53 C    0.949
                           126 H    0.941
    55   6 C    3.966 --    61 O    1.009    54 C    0.966   127 H    0.958
                            56 C    0.956
    56   6 C    3.956 --    60 O    1.003    57 C    0.961   128 H    0.958
                            55 C    0.956
    57   6 C    3.932 --    59 C    0.982    56 C    0.961   129 H    0.958
                            58 O    0.945
    58   8 O    2.058 --    53 C    0.963    57 C    0.945
    59   6 C    3.957 --    63 O    1.010    57 C    0.982   131 H    0.965
                           130 H    0.965
    60   8 O    1.953 --    56 C    1.003   132 H    0.854
    61   8 O    1.942 --    55 C    1.009   133 H    0.839
    62   8 O    1.952 --    54 C    1.005   134 H    0.863
    63   8 O    1.934 --    59 C    1.010   135 H    0.864
    64   6 C    3.979 --    69 C    1.355    65 C    1.354    31 C    1.037
    65   6 C    3.986 --    66 C    1.484    64 C    1.354   136 H    0.963
    66   6 C    3.984 --    65 C    1.484    67 C    1.353   137 H    0.963
    67   6 C    3.935 --    68 C    1.356    66 C    1.353    70 O    1.046
    68   6 C    3.988 --    69 C    1.482    67 C    1.356   138 H    0.961
    69   6 C    3.984 --    68 C    1.482    64 C    1.355   139 H    0.960
    70   8 O    2.266 --    67 C    1.046    71 C    0.987
    71   6 C    3.918 --    76 C    1.384    72 C    1.383    70 O    0.987
                            74 C    0.105
    72   6 C    3.983 --    73 C    1.451    71 C    1.383   140 H    0.967
                            75 C    0.107
    73   6 C    3.990 --    72 C    1.451    74 C    1.434   141 H    0.968
                            76 C    0.108
    74   6 C    3.986 --    75 C    1.435    73 C    1.434   142 H    0.969
                            71 C    0.105
    75   6 C    3.989 --    76 C    1.450    74 C    1.435   143 H    0.967
                            72 C    0.107
    76   6 C    3.989 --    75 C    1.450    71 C    1.384   144 H    0.960
                            73 C    0.108
    77   1 H    0.992 --     4 C    0.954
    78   1 H    0.993 --     6 C    0.962
    79   1 H    0.998 --     7 C    0.938
    80   1 H    0.995 --     8 C    0.949
    81   1 H    0.996 --     9 C    0.943
    82   1 H    0.994 --    10 C    0.948
    83   1 H    0.998 --    11 C    0.936
    84   1 H    0.998 --    13 C    0.951
    85   1 H    0.997 --    13 C    0.953
    86   1 H    0.879 --    14 O    0.866
    87   1 H    0.903 --    15 O    0.852
    88   1 H    0.995 --    18 C    0.967
    89   1 H    0.998 --    18 C    0.964
    90   1 H    0.889 --    19 O    0.844
    91   1 H    1.000 --    20 C    0.946
    92   1 H    0.998 --    22 C    0.955
    93   1 H    0.995 --    23 C    0.954
    94   1 H    0.998 --    24 C    0.958
    95   1 H    0.993 --    25 C    0.950
    96   1 H    0.867 --    26 O    0.849
    97   1 H    0.863 --    28 O    0.841
    98   1 H    0.988 --    29 C    0.948
    99   1 H    0.989 --    29 C    0.958
   100   1 H    0.990 --    34 C    0.953
   101   1 H    0.993 --    36 C    0.949
   102   1 H    0.996 --    37 C    0.959
   103   1 H    0.993 --    38 C    0.955
   104   1 H    0.996 --    39 C    0.970
   105   1 H    0.989 --    39 C    0.956
   106   1 H    0.997 --    40 C    0.962
   107   1 H    0.997 --    41 C    0.965
   108   1 H    0.879 --    42 O    0.863
   109   1 H    0.997 --    43 C    0.948
   110   1 H    0.997 --    44 C    0.961
   111   1 H    1.000 --    45 C    0.961
   112   1 H    0.997 --    46 C    0.973
   113   1 H    0.992 --    46 C    0.951
   114   1 H    1.000 --    47 C    0.969
   115   1 H    0.999 --    47 C    0.977
   116   1 H    0.998 --    48 C    0.976
   117   1 H    0.999 --    48 C    0.977
   118   1 H    0.998 --    49 C    0.977
   119   1 H    0.998 --    49 C    0.977
   120   1 H    1.000 --    50 C    0.984
   121   1 H    0.997 --    50 C    0.981
   122   1 H    0.998 --    50 C    0.975
   123   1 H    0.894 --    51 O    0.859
   124   1 H    0.872 --    52 O    0.831
   125   1 H    0.998 --    53 C    0.950
   126   1 H    0.995 --    54 C    0.941
   127   1 H    0.997 --    55 C    0.958
   128   1 H    0.994 --    56 C    0.958
   129   1 H    0.998 --    57 C    0.958
   130   1 H    0.993 --    59 C    0.965
   131   1 H    0.997 --    59 C    0.965
   132   1 H    0.898 --    60 O    0.854
   133   1 H    0.882 --    61 O    0.839
   134   1 H    0.881 --    62 O    0.863
   135   1 H    0.881 --    63 O    0.864
   136   1 H    0.994 --    65 C    0.963
   137   1 H    0.992 --    66 C    0.963
   138   1 H    0.994 --    68 C    0.961
   139   1 H    0.994 --    69 C    0.960
   140   1 H    0.997 --    72 C    0.967
   141   1 H    0.996 --    73 C    0.968
   142   1 H    0.997 --    74 C    0.969
   143   1 H    0.996 --    75 C    0.967
   144   1 H    0.999 --    76 C    0.960
 ---------------------------------------------------------------------------

Topologies differ in total number of bonds
Writing topology from bond orders to xtbtopo.mol

molecular dipole:
                 x           y           z       tot (Debye)
 q only:       -2.195      -1.671      -0.063
   full:       -1.048      -1.824       0.397       5.441
molecular quadrupole (traceless):
                xx          xy          yy          xz          yz          zz
 q only:       43.742      36.277     -15.172      57.387      22.230     -28.570
  q+dip:       44.479      36.827     -17.049      69.210      25.676     -27.431
   full:       42.202      36.313     -13.194      68.297      24.944     -29.008


           -------------------------------------------------
          | TOTAL ENERGY             -239.814584346787 Eh   |
          | GRADIENT NORM               0.125404000852 Eh/α |
          | HOMO-LUMO GAP               2.064722343429 eV   |
           -------------------------------------------------

------------------------------------------------------------------------
 * finished run on 2026/06/19 at 18:52:43.677     
------------------------------------------------------------------------
 total:
 * wall-time:     0 d,  0 h,  0 min,  0.309 sec
 *  cpu-time:     0 d,  0 h,  0 min,  4.750 sec
 * ratio c/w:    15.376 speedup
 SCF:
 * wall-time:     0 d,  0 h,  0 min,  0.262 sec
 *  cpu-time:     0 d,  0 h,  0 min,  4.133 sec
 * ratio c/w:    15.788 speedup

normal termination of xtb
