      -----------------------------------------------------------      
     |                   =====================                   |     
     |                           x T B                           |     
     |                   =====================                   |     
     |                         S. Grimme                         |     
     |          Mulliken Center for Theoretical Chemistry        |     
     |                    University of Bonn                     |     
      -----------------------------------------------------------      

   * xtb version 6.7.1 (edcfbbe) compiled by 'albert@albert-system' on 2024-07-22

   xtb is free software: you can redistribute it and/or modify it under
   the terms of the GNU Lesser General Public License as published by
   the Free Software Foundation, either version 3 of the License, or
   (at your option) any later version.
   
   xtb is distributed in the hope that it will be useful,
   but WITHOUT ANY WARRANTY; without even the implied warranty of
   MERCHANTABILITY or FITNESS FOR A PARTICULAR PURPOSE.  See the
   GNU Lesser General Public License for more details.
   
   Cite this work as:
   * C. Bannwarth, E. Caldeweyher, S. Ehlert, A. Hansen, P. Pracht,
     J. Seibert, S. Spicher, S. Grimme, WIREs Comput. Mol. Sci., 2020, 11,
     e01493. DOI: 10.1002/wcms.1493
   
   for GFN2-xTB:
   * C. Bannwarth, S. Ehlert and S. Grimme., J. Chem. Theory Comput., 2019,
     15, 1652-1671. DOI: 10.1021/acs.jctc.8b01176
   for GFN1-xTB:
   * S. Grimme, C. Bannwarth, P. Shushkov, J. Chem. Theory Comput., 2017,
     13, 1989-2009. DOI: 10.1021/acs.jctc.7b00118
   for GFN0-xTB:
   * P. Pracht, E. Caldeweyher, S. Ehlert, S. Grimme, ChemRxiv, 2019, preprint.
     DOI: 10.26434/chemrxiv.8326202.v1
   for GFN-FF:
   * S. Spicher and S. Grimme, Angew. Chem. Int. Ed., 2020, 59, 15665-15673.
     DOI: 10.1002/anie.202004239
   
   for ALPB and GBSA implicit solvation:
   * S. Ehlert, M. Stahn, S. Spicher, S. Grimme, J. Chem. Theory Comput.,
     2021, 17, 4250-4261. DOI: 10.1021/acs.jctc.1c00471
   
   for ddCOSMO and CPCM-X implicit solvation:
   * M. Stahn, S. Ehlert, S. Grimme, J. Phys. Chem. A,
     2023, XX, XXXX-XXXX. DOI: 10.1021/acs.jpca.3c04382
   
   for DFT-D4:
   * E. Caldeweyher, C. Bannwarth and S. Grimme, J. Chem. Phys., 2017,
     147, 034112. DOI: 10.1063/1.4993215
   * E. Caldeweyher, S. Ehlert, A. Hansen, H. Neugebauer, S. Spicher,
     C. Bannwarth and S. Grimme, J. Chem. Phys., 2019, 150, 154122.
     DOI: 10.1063/1.5090222
   * E. Caldeweyher, J.-M. Mewes, S. Ehlert and S. Grimme, Phys. Chem. Chem. Phys.
     2020, 22, 8499-8512. DOI: 10.1039/D0CP00502A
   
   for sTDA-xTB:
   * S. Grimme and C. Bannwarth, J. Chem. Phys., 2016, 145, 054103.
     DOI: 10.1063/1.4959605
   
   in the mass-spec context:
   * V. Asgeirsson, C. Bauer and S. Grimme, Chem. Sci., 2017, 8, 4879.
     DOI: 10.1039/c7sc00601b
   * J. Koopman and S. Grimme, ACS Omega 2019, 4, 12, 15120-15133.
     DOI: 10.1021/acsomega.9b02011
   
   for metadynamics refer to:
   * S. Grimme, J. Chem. Theory Comput., 2019, 155, 2847-2862
     DOI: 10.1021/acs.jctc.9b00143
   
   for SPH calculations refer to:
   * S. Spicher and S. Grimme, J. Chem. Theory Comput., 2021, 17, 1701-1714
     DOI: 10.1021/acs.jctc.0c01306
   
   for ONIOM refer to:
   * C. Plett, A. Katbashev, S. Ehlert, S. Grimme, M. Bursch,
     Phys. Chem. Chem. Phys., 2023, 25, 17860-17868. DOI: 10.1039/D3CP02178E
   
   for DIPRO refer to:
   * J. Kohn, N. Gildemeister, S. Grimme, D. Fazzi, A. Hansen,
     J. Chem. Phys., 2023, just accepted.
   
   for PTB refer to:
   * S. Grimme, M. Mueller, A. Hansen, J. Chem. Phys., 2023, 158, 124111.
     DOI: 10.1063/5.0137838
   
   with help from (in alphabetical order)
   P. Atkinson, C. Bannwarth, F. Bohle, G. Brandenburg, E. Caldeweyher
   M. Checinski, S. Dohm, S. Ehlert, S. Ehrlich, I. Gerasimov, C. Hölzer
   A. Katbashev, J. Kohn, J. Koopman, C. Lavigne, S. Lehtola, F. März, M. Müller,
   F. Musil, H. Neugebauer, J. Pisarek, C. Plett, P. Pracht, F. Pultar,
   J. Seibert, P. Shushkov, S. Spicher, M. Stahn, M. Steiner, T. Strunk,
   J. Stückrath, T. Rose, and J. Unsleber
   
 * started run on 2026/06/19 at 18:52:26.785     
   ID    Z sym.   atoms
    1    6 C      1-11, 13, 18, 20, 22-25, 29, 31, 33, 34, 36-41, 43-50,
                  53-57, 59, 64-73
    2    8 O      12, 14-17, 19, 21, 26-28, 30, 32, 35, 42, 51, 52, 58, 60-63
    3    1 H      74-139

           -------------------------------------------------
          |                Calculation Setup                |
           -------------------------------------------------

          program call               : xtb PAPU-0076/conf03.xyz --gfn 2 --alpb octanol --chrg 0 --uhf 0 --namespace PAPU-0076/conf03_octanol
          hostname                   : cpu10
          calculation namespace      : PAPU-0076/conf03_octanol
          coordinate file            : PAPU-0076/conf03.xyz
          omp threads                :                    16


           -------------------------------------------------
          |                 G F N 2 - x T B                 |
           -------------------------------------------------

        Reference                      10.1021/acs.jctc.8b01176
      * Hamiltonian:
        H0-scaling (s, p, d)           1.850000    2.230000    2.230000
        zeta-weighting                 0.500000
      * Dispersion:
        s8                             2.700000
        a1                             0.520000
        a2                             5.000000
        s9                             5.000000
      * Repulsion:
        kExp                           1.500000    1.000000
        rExp                           1.000000
      * Coulomb:
        alpha                          2.000000
        third order                    shell-resolved
        anisotropic                    true
        a3                             3.000000
        a5                             4.000000
        cn-shift                       1.200000
        cn-exp                         4.000000
        max-rad                        5.000000

      * Solvation model:               ALPB
        Solvent                        octanol
        Parameter file                 internal GFN2-xTB/ALPB
        Dielectric constant                9.8629E+00
        Reference state                gsolv [1 M gas/solution]
        Free energy shift                  2.3397E-03 Eh       1.4682E+00 kcal/mol
        Temperature                        2.9815E+02 K
        Density                            8.3000E-01 kg/L
        Solvent mass                       1.3023E+02 g/mol
        Interaction kernel             P16
        Born radius scaling (c1)           1.5898E+00
        Born radii integrator          GBOBC
        Born offset                        0.0000E+00 a0       0.0000E+00 AA
        H-bond correction              true
        Ion screening                  false
        Surface tension                    1.0000E-05 Eh       1.5569E+01 dyn/cm
        Grid points                               230 per atom

          ...................................................
          :                      SETUP                      :
          :.................................................:
          :  # basis functions                 358          :
          :  # atomic orbitals                 358          :
          :  # shells                          212          :
          :  # electrons                       400          :
          :  max. iterations                   250          :
          :  Hamiltonian                  GFN2-xTB          :
          :  restarted?                      false          :
          :  GBSA solvation                   true          :
          :  PC potential                    false          :
          :  electronic temp.          300.0000000     K    :
          :  accuracy                    1.0000000          :
          :  -> integral cutoff          0.2500000E+02      :
          :  -> integral neglect         0.1000000E-07      :
          :  -> SCF convergence          0.1000000E-05 Eh   :
          :  -> wf. convergence          0.1000000E-03 e    :
          :  Broyden damping             0.4000000          :
          :  net charge                          0          :
          :  unpaired electrons                  0          :
          ...................................................

 iter      E             dE          RMSdq      gap      omega  full diag
   1   -232.6770931 -0.232677E+03  0.444E+00    2.43       0.0  T
   2   -232.9228564 -0.245763E+00  0.246E+00    1.39       1.0  T
   3   -232.9054371  0.174193E-01  0.106E+00    1.35       1.0  T
   4   -232.9452374 -0.398004E-01  0.329E-01    1.07       1.0  T
   5   -232.9519641 -0.672664E-02  0.134E-01    1.06       1.0  T
   6   -232.9527698 -0.805763E-03  0.658E-02    1.10       1.0  T
   7   -232.9529021 -0.132309E-03  0.304E-02    1.12       1.0  T
   8   -232.9529362 -0.340814E-04  0.134E-02    1.11       1.0  T
   9   -232.9529441 -0.783730E-05  0.563E-03    1.11       1.5  T
  10   -232.9529457 -0.162927E-05  0.299E-03    1.11       2.8  T
  11   -232.9529460 -0.287053E-06  0.143E-03    1.11       5.9  T
  12   -232.9529460 -0.478296E-07  0.570E-04    1.11      14.9  T
  13   -232.9529460 -0.138246E-07  0.269E-04    1.11      31.6  T

   *** convergence criteria satisfied after 13 iterations ***

         #    Occupation            Energy/Eh            Energy/eV
      -------------------------------------------------------------
         1        2.0000           -0.8023479             -21.8330
       ...           ...                  ...                  ...
       194        2.0000           -0.4146329             -11.2827
       195        2.0000           -0.4139695             -11.2647
       196        2.0000           -0.4054219             -11.0321
       197        2.0000           -0.3958185             -10.7708
       198        2.0000           -0.3889829             -10.5848
       199        2.0000           -0.3834273             -10.4336
       200        2.0000           -0.3705240             -10.0825 (HOMO)
       201                         -0.3295842              -8.9684 (LUMO)
       202                         -0.2919899              -7.9455
       203                         -0.2611551              -7.1064
       204                         -0.2460953              -6.6966
       205                         -0.2398143              -6.5257
       ...                                ...                  ...
       358                          0.6970454              18.9676
      -------------------------------------------------------------
                  HL-Gap            0.0409398 Eh            1.1140 eV
             Fermi-level           -0.3500541 Eh           -9.5255 eV

 SCC (total)                   0 d,  0 h,  0 min,  0.250 sec
 SCC setup                      ...        0 min,  0.003 sec (  1.031%)
 Dispersion                     ...        0 min,  0.004 sec (  1.412%)
 classical contributions        ...        0 min,  0.000 sec (  0.042%)
 integral evaluation            ...        0 min,  0.011 sec (  4.252%)
 iterations                     ...        0 min,  0.197 sec ( 78.563%)
 molecular gradient             ...        0 min,  0.034 sec ( 13.714%)
 printout                       ...        0 min,  0.002 sec (  0.967%)

         :::::::::::::::::::::::::::::::::::::::::::::::::::::
         ::                     SUMMARY                     ::
         :::::::::::::::::::::::::::::::::::::::::::::::::::::
         :: total energy            -230.444995034405 Eh    ::
         :: total w/o Gsasa/hb      -230.380630086148 Eh    ::
         :: gradient norm              0.133082757996 Eh/a0 ::
         :: HOMO-LUMO gap              1.114028581308 eV    ::
         ::.................................................::
         :: SCC energy              -232.936807961702 Eh    ::
         :: -> isotropic ES            0.524450602067 Eh    ::
         :: -> anisotropic ES         -0.023967721659 Eh    ::
         :: -> anisotropic XC          0.021351433802 Eh    ::
         :: -> dispersion             -0.195679891702 Eh    ::
         :: -> Gsolv                  -0.094221117550 Eh    ::
         ::    -> Gelec               -0.029856169292 Eh    ::
         ::    -> Gsasa               -0.030284296402 Eh    ::
         ::    -> Ghb                 -0.036420321231 Eh    ::
         ::    -> Gshift               0.002339669376 Eh    ::
         :: repulsion energy           2.491812927297 Eh    ::
         :: add. restraining           0.000000000000 Eh    ::
         :: total charge              -0.000000000000 e     ::
         :::::::::::::::::::::::::::::::::::::::::::::::::::::

           -------------------------------------------------
          |                Property Printout                |
           -------------------------------------------------

    * Orbital Energies and Occupations

         #    Occupation            Energy/Eh            Energy/eV
      -------------------------------------------------------------
         1        2.0000           -0.8023479             -21.8330
       ...           ...                  ...                  ...
       188        2.0000           -0.4238172             -11.5327
       189        2.0000           -0.4232917             -11.5184
       190        2.0000           -0.4228803             -11.5072
       191        2.0000           -0.4215688             -11.4715
       192        2.0000           -0.4156598             -11.3107
       193        2.0000           -0.4153223             -11.3015
       194        2.0000           -0.4146329             -11.2827
       195        2.0000           -0.4139695             -11.2647
       196        2.0000           -0.4054219             -11.0321
       197        2.0000           -0.3958185             -10.7708
       198        2.0000           -0.3889829             -10.5848
       199        2.0000           -0.3834273             -10.4336
       200        2.0000           -0.3705240             -10.0825 (HOMO)
       201                         -0.3295842              -8.9684 (LUMO)
       202                         -0.2919899              -7.9455
       203                         -0.2611551              -7.1064
       204                         -0.2460953              -6.6966
       205                         -0.2398143              -6.5257
       206                         -0.2309708              -6.2850
       207                         -0.2244342              -6.1072
       208                         -0.2221641              -6.0454
       209                         -0.1976843              -5.3793
       210                         -0.1738804              -4.7315
       211                         -0.1478848              -4.0242
       ...                                ...                  ...
       358                          0.6970454              18.9676
      -------------------------------------------------------------
                  HL-Gap            0.0409398 Eh            1.1140 eV
             Fermi-level           -0.3500541 Eh           -9.5255 eV

     #   Z          covCN         q      C6AA      α(0)
     1   6 C        2.840     0.142    24.902     8.178
     2   6 C        2.969    -0.044    29.086     8.846
     3   6 C        2.966     0.009    27.824     8.652
     4   6 C        2.927    -0.098    30.457     9.051
     5   6 C        2.837     0.148    24.779     8.158
     6   6 C        2.922    -0.088    30.203     9.012
     7   6 C        3.742     0.093    19.112     6.237
     8   6 C        3.720     0.100    19.042     6.233
     9   6 C        3.746     0.101    18.981     6.215
    10   6 C        3.743     0.087    19.200     6.251
    11   6 C        3.737     0.090    19.163     6.247
    12   8 O        1.695    -0.341    19.728     5.997
    13   6 C        3.681     0.072    19.586     6.338
    14   8 O        1.653    -0.506    23.021     6.477
    15   8 O        1.651    -0.489    22.653     6.425
    16   8 O        1.696    -0.342    19.745     5.999
    17   8 O        1.701    -0.323    19.392     5.945
    18   6 C        3.675     0.066    19.690     6.358
    19   8 O        1.653    -0.468    22.206     6.361
    20   6 C        3.627     0.234    17.326     5.996
    21   8 O        1.697    -0.349    19.874     6.019
    22   6 C        3.734     0.091    19.156     6.247
    23   6 C        3.722     0.086    19.258     6.267
    24   6 C        3.722     0.091    19.181     6.255
    25   6 C        3.732     0.083    19.285     6.268
    26   8 O        1.652    -0.467    22.191     6.359
    27   8 O        1.697    -0.326    19.460     5.956
    28   8 O        1.653    -0.440    21.650     6.281
    29   6 C        3.717     0.062    19.657     6.333
    30   8 O        1.703    -0.254    18.213     5.762
    31   6 C        2.738     0.356    20.963     7.496
    32   8 O        0.857    -0.455    22.814     6.404
    33   6 C        2.721     0.350    21.052     7.511
    34   6 C        2.896    -0.113    30.867     9.109
    35   8 O        0.858    -0.500    23.786     6.539
    36   6 C        2.902     0.010    27.804     8.646
    37   6 C        2.898    -0.049    29.219     8.863
    38   6 C        2.896    -0.008    28.211     8.708
    39   6 C        3.807    -0.092    22.255     6.716
    40   6 C        3.728     0.109    18.884     6.204
    41   6 C        2.896    -0.074    29.834     8.955
    42   8 O        1.652    -0.499    22.865     6.455
    43   6 C        2.897    -0.032    28.787     8.797
    44   6 C        2.900    -0.050    29.230     8.865
    45   6 C        2.894    -0.044    29.101     8.845
    46   6 C        3.806    -0.064    21.719     6.634
    47   6 C        3.801    -0.055    21.555     6.610
    48   6 C        3.800    -0.064    21.732     6.637
    49   6 C        3.798    -0.052    21.511     6.604
    50   6 C        3.750    -0.118    22.823     6.813
    51   8 O        1.657    -0.431    21.469     6.255
    52   8 O        1.657    -0.433    21.492     6.258
    53   6 C        3.629     0.226    17.426     6.012
    54   6 C        3.722     0.096    19.103     6.242
    55   6 C        3.721     0.086    19.265     6.269
    56   6 C        3.720     0.070    19.520     6.310
    57   6 C        3.740     0.087    19.209     6.253
    58   8 O        1.696    -0.357    20.028     6.042
    59   6 C        3.675     0.065    19.713     6.362
    60   8 O        1.651    -0.463    22.107     6.347
    61   8 O        1.652    -0.461    22.064     6.341
    62   8 O        1.652    -0.484    22.560     6.412
    63   8 O        1.653    -0.464    22.142     6.352
    64   6 C        2.969    -0.032    28.785     8.800
    65   6 C        2.923    -0.044    29.081     8.843
    66   6 C        2.918    -0.040    28.994     8.830
    67   6 C        2.991     0.020    27.560     8.612
    68   6 C        2.989     0.017    27.613     8.620
    69   6 C        2.925    -0.028    28.709     8.787
    70   6 C        2.920    -0.040    28.990     8.829
    71   6 C        2.918    -0.028    28.711     8.787
    72   6 C        2.918    -0.031    28.767     8.795
    73   6 C        2.921    -0.034    28.841     8.807
    74   1 H        0.926     0.062     2.178     2.308
    75   1 H        0.926     0.083     1.945     2.181
    76   1 H        0.924     0.069     2.098     2.265
    77   1 H        0.924     0.038     2.478     2.462
    78   1 H        0.924     0.048     2.351     2.398
    79   1 H        0.924     0.082     1.954     2.186
    80   1 H        0.923     0.048     2.343     2.394
    81   1 H        0.924     0.039     2.457     2.451
    82   1 H        0.924     0.048     2.349     2.397
    83   1 H        0.804     0.351     0.587     1.204
    84   1 H        0.803     0.338     0.618     1.235
    85   1 H        0.924     0.085     1.932     2.174
    86   1 H        0.924     0.050     2.326     2.385
    87   1 H        0.802     0.336     0.623     1.240
    88   1 H        0.923     0.062     2.172     2.305
    89   1 H        0.923     0.051     2.307     2.375
    90   1 H        0.923     0.090     1.880     2.144
    91   1 H        0.923     0.044     2.398     2.422
    92   1 H        0.924     0.036     2.505     2.475
    93   1 H        0.802     0.339     0.614     1.231
    94   1 H        0.802     0.310     0.693     1.308
    95   1 H        0.924     0.100     1.787     2.091
    96   1 H        0.924     0.090     1.882     2.146
    97   1 H        0.926     0.101     1.777     2.085
    98   1 H        0.926     0.090     1.875     2.141
    99   1 H        0.926     0.086     1.916     2.165
   100   1 H        0.926     0.080     1.979     2.200
   101   1 H        0.924     0.094     1.839     2.120
   102   1 H        0.924     0.088     1.903     2.157
   103   1 H        0.923     0.049     2.332     2.388
   104   1 H        0.926     0.065     2.139     2.287
   105   1 H        0.804     0.337     0.621     1.238
   106   1 H        0.926     0.037     2.490     2.468
   107   1 H        0.926     0.055     2.259     2.350
   108   1 H        0.926     0.031     2.566     2.505
   109   1 H        0.924     0.046     2.373     2.409
   110   1 H        0.924     0.036     2.496     2.471
   111   1 H        0.924     0.027     2.636     2.539
   112   1 H        0.924     0.027     2.634     2.538
   113   1 H        0.924     0.036     2.503     2.474
   114   1 H        0.924     0.037     2.485     2.465
   115   1 H        0.924     0.017     2.787     2.611
   116   1 H        0.923     0.038     2.483     2.464
   117   1 H        0.925     0.039     2.467     2.456
   118   1 H        0.924     0.040     2.451     2.448
   119   1 H        0.924     0.033     2.541     2.493
   120   1 H        0.803     0.349     0.590     1.207
   121   1 H        0.804     0.360     0.565     1.181
   122   1 H        0.924     0.061     2.182     2.310
   123   1 H        0.924    -0.001     3.078     2.744
   124   1 H        0.923     0.074     2.046     2.237
   125   1 H        0.923     0.075     2.027     2.227
   126   1 H        0.923     0.041     2.433     2.440
   127   1 H        0.924     0.081     1.967     2.193
   128   1 H        0.924     0.061     2.189     2.314
   129   1 H        0.801     0.314     0.681     1.296
   130   1 H        0.802     0.333     0.631     1.248
   131   1 H        0.802     0.336     0.623     1.240
   132   1 H        0.803     0.348     0.594     1.210
   133   1 H        0.926     0.062     2.173     2.305
   134   1 H        0.926     0.055     2.257     2.349
   135   1 H        0.926     0.066     2.131     2.283
   136   1 H        0.926     0.052     2.292     2.368
   137   1 H        0.926     0.055     2.253     2.347
   138   1 H        0.926     0.058     2.225     2.332
   139   1 H        0.926     0.060     2.199     2.319

 Mol. C6AA /au·bohr⁶  :     192853.951629
 Mol. C8AA /au·bohr⁸  :    4431051.269493
 Mol. α(0) /au        :        662.698417


Wiberg/Mayer (AO) data.
largest (>0.10) Wiberg bond orders for each atom

 ---------------------------------------------------------------------------
     #   Z sym  total        # sym  WBO       # sym  WBO       # sym  WBO
 ---------------------------------------------------------------------------
     1   6 C    3.945 --     6 C    1.385     2 C    1.334    51 O    1.082
     2   6 C    3.970 --     3 C    1.391     1 C    1.334     7 C    0.988
     3   6 C    3.987 --     4 C    1.425     2 C    1.391    13 C    1.004
     4   6 C    3.979 --     3 C    1.425     5 C    1.360    74 H    0.962
     5   6 C    3.945 --     6 C    1.383     4 C    1.360    52 O    1.075
     6   6 C    3.978 --     1 C    1.385     5 C    1.383    75 H    0.961
     7   6 C    3.927 --     2 C    0.988     8 C    0.947    12 O    0.947
                            76 H    0.943
     8   6 C    3.952 --    15 O    0.994     9 C    0.965    77 H    0.952
                             7 C    0.947
     9   6 C    3.921 --    10 C    0.969     8 C    0.965    78 H    0.953
                            17 O    0.925
    10   6 C    3.924 --     9 C    0.969    11 C    0.959    16 O    0.947
                            79 H    0.936
    11   6 C    3.946 --    18 C    0.976    12 O    0.969    10 C    0.959
                            80 H    0.956
    12   8 O    2.083 --    11 C    0.969     7 C    0.947
    13   6 C    3.953 --     3 C    1.004    14 O    0.982    81 H    0.970
                            82 H    0.950
    14   8 O    1.918 --    13 C    0.982    83 H    0.862
    15   8 O    1.930 --     8 C    0.994    84 H    0.834
    16   8 O    2.098 --    20 C    0.969    10 C    0.947
    17   8 O    2.260 --    33 C    1.059     9 C    0.925    35 O    0.131
    18   6 C    3.957 --    19 O    1.017    11 C    0.976    85 H    0.966
                            86 H    0.963
    19   8 O    1.940 --    18 C    1.017    87 H    0.852
    20   6 C    3.919 --    21 O    0.969    16 O    0.969    25 C    0.952
                            88 H    0.949
    21   8 O    2.075 --    20 C    0.969    22 C    0.943
    22   6 C    3.931 --    29 C    0.979    23 C    0.962    89 H    0.957
                            21 O    0.943
    23   6 C    3.959 --    28 O    1.008    22 C    0.962    24 C    0.961
                            90 H    0.955
    24   6 C    3.964 --    26 O    1.005    25 C    0.962    23 C    0.961
                            91 H    0.955
    25   6 C    3.943 --    24 C    0.962    27 O    0.957    20 C    0.952
                            92 H    0.943
    26   8 O    1.943 --    24 C    1.005    93 H    0.829
    27   8 O    2.104 --    53 C    0.984    25 C    0.957
    28   8 O    1.984 --    23 C    1.008    94 H    0.856
    29   6 C    3.928 --    22 C    0.979    30 O    0.967    95 H    0.961
                            96 H    0.958
    30   8 O    2.297 --    31 C    1.101    29 C    0.967    32 O    0.154
    31   6 C    3.899 --    32 O    1.686    30 O    1.101    64 C    1.015
    32   8 O    2.006 --    31 C    1.686    30 O    0.154
    33   6 C    3.887 --    35 O    1.568    34 C    1.116    17 O    1.059
    34   6 C    3.968 --    36 C    1.673    33 C    1.116    97 H    0.935
    35   8 O    1.976 --    33 C    1.568    17 O    0.131
    36   6 C    3.964 --    34 C    1.673    37 C    1.168    98 H    0.954
    37   6 C    3.983 --    38 C    1.753    36 C    1.168    99 H    0.958
    38   6 C    3.969 --    37 C    1.753    39 C    1.051   100 H    0.949
    39   6 C    3.987 --    38 C    1.051    40 C    0.982   102 H    0.938
                           101 H    0.938
    40   6 C    3.951 --    41 C    1.001    39 C    0.982    42 O    0.973
                           103 H    0.958
    41   6 C    3.979 --    43 C    1.838    40 C    1.001   104 H    0.955
                            45 C    0.129
    42   8 O    1.924 --    40 C    0.973   105 H    0.871
    43   6 C    3.990 --    41 C    1.838    44 C    1.122   106 H    0.963
    44   6 C    3.988 --    45 C    1.835    43 C    1.122   107 H    0.956
    45   6 C    3.983 --    44 C    1.835    46 C    1.026   108 H    0.967
                            41 C    0.129
    46   6 C    3.996 --    45 C    1.026    47 C    0.988   110 H    0.978
                           109 H    0.963
    47   6 C    3.990 --    48 C    1.007    46 C    0.988   111 H    0.974
                           112 H    0.973
    48   6 C    3.995 --    47 C    1.007    49 C    1.007   114 H    0.976
                           113 H    0.976
    49   6 C    3.996 --    50 C    1.021    48 C    1.007   116 H    0.977
                           115 H    0.974
    50   6 C    3.995 --    49 C    1.021   118 H    0.987   119 H    0.987
                           117 H    0.976
    51   8 O    2.093 --     1 C    1.082   120 H    0.827
    52   8 O    2.084 --     5 C    1.075   121 H    0.852
    53   6 C    3.919 --    27 O    0.984    58 O    0.953    54 C    0.950
                           122 H    0.941
    54   6 C    3.963 --    62 O    1.002    55 C    0.967    53 C    0.950
                           123 H    0.935
    55   6 C    3.960 --    61 O    1.008    54 C    0.967    56 C    0.960
                           124 H    0.959
    56   6 C    3.958 --    60 O    1.002    57 C    0.960    55 C    0.960
                           125 H    0.956
    57   6 C    3.928 --    59 C    0.978    56 C    0.960   126 H    0.956
                            58 O    0.936
    58   8 O    2.074 --    53 C    0.953    57 C    0.936
    59   6 C    3.954 --    63 O    1.012    57 C    0.978   128 H    0.965
                           127 H    0.962
    60   8 O    1.952 --    56 C    1.002   129 H    0.851
    61   8 O    1.956 --    55 C    1.008   130 H    0.851
    62   8 O    1.929 --    54 C    1.002   131 H    0.833
    63   8 O    1.950 --    59 C    1.012   132 H    0.863
    64   6 C    3.983 --    69 C    1.484    65 C    1.267    31 C    1.015
    65   6 C    3.989 --    66 C    1.575    64 C    1.267   133 H    0.958
    66   6 C    3.990 --    65 C    1.575    67 C    1.269   134 H    0.966
                            69 C    0.109
    67   6 C    3.990 --    70 C    1.281    66 C    1.269    68 C    1.250
    68   6 C    3.990 --    69 C    1.290    73 C    1.270    67 C    1.250
    69   6 C    3.985 --    64 C    1.484    68 C    1.290   135 H    0.963
                            66 C    0.109
    70   6 C    3.989 --    71 C    1.555    67 C    1.281   136 H    0.967
                            73 C    0.118
    71   6 C    3.982 --    70 C    1.555    72 C    1.320   137 H    0.969
    72   6 C    3.990 --    73 C    1.560    71 C    1.320   138 H    0.968
    73   6 C    3.988 --    72 C    1.560    68 C    1.270   139 H    0.965
                            70 C    0.118
    74   1 H    0.996 --     4 C    0.962
    75   1 H    0.992 --     6 C    0.961
    76   1 H    0.995 --     7 C    0.943
    77   1 H    0.998 --     8 C    0.952
    78   1 H    0.997 --     9 C    0.953
    79   1 H    0.993 --    10 C    0.936
    80   1 H    0.997 --    11 C    0.956
    81   1 H    0.998 --    13 C    0.970
    82   1 H    0.998 --    13 C    0.950
    83   1 H    0.876 --    14 O    0.862
    84   1 H    0.886 --    15 O    0.834
    85   1 H    0.992 --    18 C    0.966
    86   1 H    0.997 --    18 C    0.963
    87   1 H    0.887 --    19 O    0.852
    88   1 H    0.995 --    20 C    0.949
    89   1 H    0.997 --    22 C    0.957
    90   1 H    0.991 --    23 C    0.955
    91   1 H    0.998 --    24 C    0.955
    92   1 H    0.999 --    25 C    0.943
    93   1 H    0.885 --    26 O    0.829
    94   1 H    0.904 --    28 O    0.856
    95   1 H    0.989 --    29 C    0.961
    96   1 H    0.991 --    29 C    0.958
    97   1 H    0.990 --    34 C    0.935
    98   1 H    0.991 --    36 C    0.954
    99   1 H    0.992 --    37 C    0.958
   100   1 H    0.994 --    38 C    0.949
   101   1 H    0.986 --    39 C    0.938
   102   1 H    0.988 --    39 C    0.938
   103   1 H    0.997 --    40 C    0.958
   104   1 H    0.996 --    41 C    0.955
   105   1 H    0.887 --    42 O    0.871
   106   1 H    0.998 --    43 C    0.963
   107   1 H    0.997 --    44 C    0.956
   108   1 H    0.999 --    45 C    0.967
   109   1 H    0.998 --    46 C    0.963
   110   1 H    0.998 --    46 C    0.978
   111   1 H    0.999 --    47 C    0.974
   112   1 H    0.999 --    47 C    0.973
   113   1 H    0.999 --    48 C    0.976
   114   1 H    0.999 --    48 C    0.976
   115   1 H    1.000 --    49 C    0.974
   116   1 H    0.998 --    49 C    0.977
   117   1 H    0.998 --    50 C    0.976
   118   1 H    0.998 --    50 C    0.987
   119   1 H    0.999 --    50 C    0.987
   120   1 H    0.878 --    51 O    0.827
   121   1 H    0.870 --    52 O    0.852
   122   1 H    0.995 --    53 C    0.941
   123   1 H    1.000 --    54 C    0.935
   124   1 H    0.994 --    55 C    0.959
   125   1 H    0.994 --    56 C    0.956
   126   1 H    0.998 --    57 C    0.956
   127   1 H    0.993 --    59 C    0.962
   128   1 H    0.995 --    59 C    0.965
   129   1 H    0.901 --    60 O    0.851
   130   1 H    0.889 --    61 O    0.851
   131   1 H    0.887 --    62 O    0.833
   132   1 H    0.879 --    63 O    0.863
   133   1 H    0.996 --    65 C    0.958
   134   1 H    0.996 --    66 C    0.966
   135   1 H    0.995 --    69 C    0.963
   136   1 H    0.997 --    70 C    0.967
   137   1 H    0.996 --    71 C    0.969
   138   1 H    0.996 --    72 C    0.968
   139   1 H    0.996 --    73 C    0.965
 ---------------------------------------------------------------------------

Topologies differ in total number of bonds
Writing topology from bond orders to xtbtopo.mol

molecular dipole:
                 x           y           z       tot (Debye)
 q only:        2.592       2.047      -2.348
   full:        3.264       1.309      -2.684      11.245
molecular quadrupole (traceless):
                xx          xy          yy          xz          yz          zz
 q only:       17.682     -26.932     -16.691      11.027     -14.603      -0.992
  q+dip:       -0.767     -39.118     -18.559      15.232     -17.054      19.326
   full:       -0.546     -39.509     -15.343      14.362     -13.139      15.889


           -------------------------------------------------
          | TOTAL ENERGY             -230.444995034405 Eh   |
          | GRADIENT NORM               0.133082757996 Eh/α |
          | HOMO-LUMO GAP               1.114028581308 eV   |
           -------------------------------------------------

------------------------------------------------------------------------
 * finished run on 2026/06/19 at 18:52:27.083     
------------------------------------------------------------------------
 total:
 * wall-time:     0 d,  0 h,  0 min,  0.297 sec
 *  cpu-time:     0 d,  0 h,  0 min,  4.552 sec
 * ratio c/w:    15.313 speedup
 SCF:
 * wall-time:     0 d,  0 h,  0 min,  0.251 sec
 *  cpu-time:     0 d,  0 h,  0 min,  3.938 sec
 * ratio c/w:    15.679 speedup

normal termination of xtb
