      -----------------------------------------------------------      
     |                   =====================                   |     
     |                           x T B                           |     
     |                   =====================                   |     
     |                         S. Grimme                         |     
     |          Mulliken Center for Theoretical Chemistry        |     
     |                    University of Bonn                     |     
      -----------------------------------------------------------      

   * xtb version 6.7.1 (edcfbbe) compiled by 'albert@albert-system' on 2024-07-22

   xtb is free software: you can redistribute it and/or modify it under
   the terms of the GNU Lesser General Public License as published by
   the Free Software Foundation, either version 3 of the License, or
   (at your option) any later version.
   
   xtb is distributed in the hope that it will be useful,
   but WITHOUT ANY WARRANTY; without even the implied warranty of
   MERCHANTABILITY or FITNESS FOR A PARTICULAR PURPOSE.  See the
   GNU Lesser General Public License for more details.
   
   Cite this work as:
   * C. Bannwarth, E. Caldeweyher, S. Ehlert, A. Hansen, P. Pracht,
     J. Seibert, S. Spicher, S. Grimme, WIREs Comput. Mol. Sci., 2020, 11,
     e01493. DOI: 10.1002/wcms.1493
   
   for GFN2-xTB:
   * C. Bannwarth, S. Ehlert and S. Grimme., J. Chem. Theory Comput., 2019,
     15, 1652-1671. DOI: 10.1021/acs.jctc.8b01176
   for GFN1-xTB:
   * S. Grimme, C. Bannwarth, P. Shushkov, J. Chem. Theory Comput., 2017,
     13, 1989-2009. DOI: 10.1021/acs.jctc.7b00118
   for GFN0-xTB:
   * P. Pracht, E. Caldeweyher, S. Ehlert, S. Grimme, ChemRxiv, 2019, preprint.
     DOI: 10.26434/chemrxiv.8326202.v1
   for GFN-FF:
   * S. Spicher and S. Grimme, Angew. Chem. Int. Ed., 2020, 59, 15665-15673.
     DOI: 10.1002/anie.202004239
   
   for ALPB and GBSA implicit solvation:
   * S. Ehlert, M. Stahn, S. Spicher, S. Grimme, J. Chem. Theory Comput.,
     2021, 17, 4250-4261. DOI: 10.1021/acs.jctc.1c00471
   
   for ddCOSMO and CPCM-X implicit solvation:
   * M. Stahn, S. Ehlert, S. Grimme, J. Phys. Chem. A,
     2023, XX, XXXX-XXXX. DOI: 10.1021/acs.jpca.3c04382
   
   for DFT-D4:
   * E. Caldeweyher, C. Bannwarth and S. Grimme, J. Chem. Phys., 2017,
     147, 034112. DOI: 10.1063/1.4993215
   * E. Caldeweyher, S. Ehlert, A. Hansen, H. Neugebauer, S. Spicher,
     C. Bannwarth and S. Grimme, J. Chem. Phys., 2019, 150, 154122.
     DOI: 10.1063/1.5090222
   * E. Caldeweyher, J.-M. Mewes, S. Ehlert and S. Grimme, Phys. Chem. Chem. Phys.
     2020, 22, 8499-8512. DOI: 10.1039/D0CP00502A
   
   for sTDA-xTB:
   * S. Grimme and C. Bannwarth, J. Chem. Phys., 2016, 145, 054103.
     DOI: 10.1063/1.4959605
   
   in the mass-spec context:
   * V. Asgeirsson, C. Bauer and S. Grimme, Chem. Sci., 2017, 8, 4879.
     DOI: 10.1039/c7sc00601b
   * J. Koopman and S. Grimme, ACS Omega 2019, 4, 12, 15120-15133.
     DOI: 10.1021/acsomega.9b02011
   
   for metadynamics refer to:
   * S. Grimme, J. Chem. Theory Comput., 2019, 155, 2847-2862
     DOI: 10.1021/acs.jctc.9b00143
   
   for SPH calculations refer to:
   * S. Spicher and S. Grimme, J. Chem. Theory Comput., 2021, 17, 1701-1714
     DOI: 10.1021/acs.jctc.0c01306
   
   for ONIOM refer to:
   * C. Plett, A. Katbashev, S. Ehlert, S. Grimme, M. Bursch,
     Phys. Chem. Chem. Phys., 2023, 25, 17860-17868. DOI: 10.1039/D3CP02178E
   
   for DIPRO refer to:
   * J. Kohn, N. Gildemeister, S. Grimme, D. Fazzi, A. Hansen,
     J. Chem. Phys., 2023, just accepted.
   
   for PTB refer to:
   * S. Grimme, M. Mueller, A. Hansen, J. Chem. Phys., 2023, 158, 124111.
     DOI: 10.1063/5.0137838
   
   with help from (in alphabetical order)
   P. Atkinson, C. Bannwarth, F. Bohle, G. Brandenburg, E. Caldeweyher
   M. Checinski, S. Dohm, S. Ehlert, S. Ehrlich, I. Gerasimov, C. Hölzer
   A. Katbashev, J. Kohn, J. Koopman, C. Lavigne, S. Lehtola, F. März, M. Müller,
   F. Musil, H. Neugebauer, J. Pisarek, C. Plett, P. Pracht, F. Pultar,
   J. Seibert, P. Shushkov, S. Spicher, M. Stahn, M. Steiner, T. Strunk,
   J. Stückrath, T. Rose, and J. Unsleber
   
 * started run on 2026/06/19 at 18:52:25.838     
   ID    Z sym.   atoms
    1    6 C      1-11, 13, 18, 20, 22-25, 29, 31, 33, 34, 36-41, 43-50,
                  53-57, 59, 64-73
    2    8 O      12, 14-17, 19, 21, 26-28, 30, 32, 35, 42, 51, 52, 58, 60-63
    3    1 H      74-139

           -------------------------------------------------
          |                Calculation Setup                |
           -------------------------------------------------

          program call               : xtb PAPU-0076/conf02.xyz --gfn 2 --alpb water --chrg 0 --uhf 0 --namespace PAPU-0076/conf02_water
          hostname                   : cpu10
          calculation namespace      : PAPU-0076/conf02_water
          coordinate file            : PAPU-0076/conf02.xyz
          omp threads                :                    16


           -------------------------------------------------
          |                 G F N 2 - x T B                 |
           -------------------------------------------------

        Reference                      10.1021/acs.jctc.8b01176
      * Hamiltonian:
        H0-scaling (s, p, d)           1.850000    2.230000    2.230000
        zeta-weighting                 0.500000
      * Dispersion:
        s8                             2.700000
        a1                             0.520000
        a2                             5.000000
        s9                             5.000000
      * Repulsion:
        kExp                           1.500000    1.000000
        rExp                           1.000000
      * Coulomb:
        alpha                          2.000000
        third order                    shell-resolved
        anisotropic                    true
        a3                             3.000000
        a5                             4.000000
        cn-shift                       1.200000
        cn-exp                         4.000000
        max-rad                        5.000000

      * Solvation model:               ALPB
        Solvent                        water
        Parameter file                 internal GFN2-xTB/ALPB
        Dielectric constant                8.0200E+01
        Reference state                gsolv [1 M gas/solution]
        Free energy shift                  1.0808E-03 Eh       6.7819E-01 kcal/mol
        Temperature                        2.9815E+02 K
        Density                            1.0000E+00 kg/L
        Solvent mass                       1.8000E+01 g/mol
        Interaction kernel             P16
        Born radius scaling (c1)           1.4744E+00
        Born radii integrator          GBOBC
        Born offset                        0.0000E+00 a0       0.0000E+00 AA
        H-bond correction              true
        Ion screening                  false
        Surface tension                    1.0000E-05 Eh       1.5569E+01 dyn/cm
        Grid points                               230 per atom

          ...................................................
          :                      SETUP                      :
          :.................................................:
          :  # basis functions                 358          :
          :  # atomic orbitals                 358          :
          :  # shells                          212          :
          :  # electrons                       400          :
          :  max. iterations                   250          :
          :  Hamiltonian                  GFN2-xTB          :
          :  restarted?                      false          :
          :  GBSA solvation                   true          :
          :  PC potential                    false          :
          :  electronic temp.          300.0000000     K    :
          :  accuracy                    1.0000000          :
          :  -> integral cutoff          0.2500000E+02      :
          :  -> integral neglect         0.1000000E-07      :
          :  -> SCF convergence          0.1000000E-05 Eh   :
          :  -> wf. convergence          0.1000000E-03 e    :
          :  Broyden damping             0.4000000          :
          :  net charge                          0          :
          :  unpaired electrons                  0          :
          ...................................................

 iter      E             dE          RMSdq      gap      omega  full diag
   1   -232.6636975 -0.232664E+03  0.448E+00    2.42       0.0  T
   2   -232.9019169 -0.238219E+00  0.246E+00    1.79       1.0  T
   3   -232.8848557  0.170612E-01  0.103E+00    1.66       1.0  T
   4   -232.9222761 -0.374204E-01  0.343E-01    1.39       1.0  T
   5   -232.9290423 -0.676625E-02  0.135E-01    1.38       1.0  T
   6   -232.9297766 -0.734229E-03  0.699E-02    1.41       1.0  T
   7   -232.9299228 -0.146248E-03  0.320E-02    1.42       1.0  T
   8   -232.9299605 -0.376488E-04  0.154E-02    1.42       1.0  T
   9   -232.9299685 -0.805592E-05  0.717E-03    1.42       1.2  T
  10   -232.9299708 -0.232170E-05  0.420E-03    1.42       2.0  T
  11   -232.9299715 -0.687128E-06  0.197E-03    1.42       4.3  T
  12   -232.9299716 -0.110319E-06  0.769E-04    1.42      11.0  T
  13   -232.9299717 -0.236441E-07  0.362E-04    1.42      23.4  T

   *** convergence criteria satisfied after 13 iterations ***

         #    Occupation            Energy/Eh            Energy/eV
      -------------------------------------------------------------
         1        2.0000           -0.7851626             -21.3654
       ...           ...                  ...                  ...
       194        2.0000           -0.4077883             -11.0965
       195        2.0000           -0.4037129             -10.9856
       196        2.0000           -0.3983570             -10.8398
       197        2.0000           -0.3903963             -10.6232
       198        2.0000           -0.3835888             -10.4380
       199        2.0000           -0.3772501             -10.2655
       200        2.0000           -0.3660711              -9.9613 (HOMO)
       201                         -0.3137815              -8.5384 (LUMO)
       202                         -0.2866612              -7.8004
       203                         -0.2557307              -6.9588
       204                         -0.2363453              -6.4313
       205                         -0.2299041              -6.2560
       ...                                ...                  ...
       358                          0.7018525              19.0984
      -------------------------------------------------------------
                  HL-Gap            0.0522896 Eh            1.4229 eV
             Fermi-level           -0.3399263 Eh           -9.2499 eV

 SCC (total)                   0 d,  0 h,  0 min,  0.245 sec
 SCC setup                      ...        0 min,  0.002 sec (  0.973%)
 Dispersion                     ...        0 min,  0.004 sec (  1.620%)
 classical contributions        ...        0 min,  0.000 sec (  0.043%)
 integral evaluation            ...        0 min,  0.011 sec (  4.450%)
 iterations                     ...        0 min,  0.192 sec ( 78.509%)
 molecular gradient             ...        0 min,  0.034 sec ( 13.771%)
 printout                       ...        0 min,  0.002 sec (  0.619%)

         :::::::::::::::::::::::::::::::::::::::::::::::::::::
         ::                     SUMMARY                     ::
         :::::::::::::::::::::::::::::::::::::::::::::::::::::
         :: total energy            -230.422431348219 Eh    ::
         :: total w/o Gsasa/hb      -230.398384641549 Eh    ::
         :: gradient norm              0.128607187532 Eh/a0 ::
         :: HOMO-LUMO gap              1.422872691797 eV    ::
         ::.................................................::
         :: SCC energy              -232.914146870418 Eh    ::
         :: -> isotropic ES            0.541489549471 Eh    ::
         :: -> anisotropic ES         -0.021938258653 Eh    ::
         :: -> anisotropic XC          0.022227710436 Eh    ::
         :: -> dispersion             -0.194305924001 Eh    ::
         :: -> Gsolv                  -0.073889965026 Eh    ::
         ::    -> Gelec               -0.049843258356 Eh    ::
         ::    -> Gsasa                0.006322934068 Eh    ::
         ::    -> Ghb                 -0.031450400437 Eh    ::
         ::    -> Gshift               0.001080759698 Eh    ::
         :: repulsion energy           2.491715522199 Eh    ::
         :: add. restraining           0.000000000000 Eh    ::
         :: total charge               0.000000000000 e     ::
         :::::::::::::::::::::::::::::::::::::::::::::::::::::

           -------------------------------------------------
          |                Property Printout                |
           -------------------------------------------------

    * Orbital Energies and Occupations

         #    Occupation            Energy/Eh            Energy/eV
      -------------------------------------------------------------
         1        2.0000           -0.7851626             -21.3654
       ...           ...                  ...                  ...
       188        2.0000           -0.4174075             -11.3582
       189        2.0000           -0.4162760             -11.3274
       190        2.0000           -0.4153368             -11.3019
       191        2.0000           -0.4133036             -11.2466
       192        2.0000           -0.4127893             -11.2326
       193        2.0000           -0.4094801             -11.1425
       194        2.0000           -0.4077883             -11.0965
       195        2.0000           -0.4037129             -10.9856
       196        2.0000           -0.3983570             -10.8398
       197        2.0000           -0.3903963             -10.6232
       198        2.0000           -0.3835888             -10.4380
       199        2.0000           -0.3772501             -10.2655
       200        2.0000           -0.3660711              -9.9613 (HOMO)
       201                         -0.3137815              -8.5384 (LUMO)
       202                         -0.2866612              -7.8004
       203                         -0.2557307              -6.9588
       204                         -0.2363453              -6.4313
       205                         -0.2299041              -6.2560
       206                         -0.2250649              -6.1243
       207                         -0.2194109              -5.9705
       208                         -0.2164750              -5.8906
       209                         -0.1924917              -5.2380
       210                         -0.1580452              -4.3006
       211                         -0.1426572              -3.8819
       ...                                ...                  ...
       358                          0.7018525              19.0984
      -------------------------------------------------------------
                  HL-Gap            0.0522896 Eh            1.4229 eV
             Fermi-level           -0.3399263 Eh           -9.2499 eV

     #   Z          covCN         q      C6AA      α(0)
     1   6 C        2.840     0.139    24.962     8.188
     2   6 C        2.969    -0.042    29.040     8.839
     3   6 C        2.966     0.006    27.883     8.661
     4   6 C        2.927    -0.094    30.356     9.035
     5   6 C        2.837     0.143    24.876     8.174
     6   6 C        2.922    -0.086    30.146     9.004
     7   6 C        3.742     0.097    19.047     6.226
     8   6 C        3.720     0.103    18.996     6.225
     9   6 C        3.746     0.104    18.936     6.207
    10   6 C        3.743     0.094    19.100     6.235
    11   6 C        3.737     0.096    19.071     6.232
    12   8 O        1.695    -0.346    19.813     6.010
    13   6 C        3.681     0.073    19.561     6.334
    14   8 O        1.653    -0.524    23.422     6.533
    15   8 O        1.651    -0.491    22.697     6.431
    16   8 O        1.696    -0.342    19.744     5.999
    17   8 O        1.701    -0.314    19.238     5.922
    18   6 C        3.675     0.071    19.613     6.346
    19   8 O        1.653    -0.475    22.366     6.384
    20   6 C        3.627     0.240    17.245     5.982
    21   8 O        1.697    -0.356    20.003     6.038
    22   6 C        3.734     0.098    19.041     6.228
    23   6 C        3.722     0.092    19.157     6.251
    24   6 C        3.722     0.096    19.103     6.242
    25   6 C        3.732     0.087    19.227     6.259
    26   8 O        1.652    -0.470    22.258     6.369
    27   8 O        1.697    -0.335    19.610     5.979
    28   8 O        1.653    -0.452    21.883     6.315
    29   6 C        3.718     0.066    19.589     6.322
    30   8 O        1.703    -0.258    18.276     5.772
    31   6 C        2.738     0.355    20.972     7.498
    32   8 O        0.857    -0.467    23.070     6.440
    33   6 C        2.721     0.354    20.993     7.501
    34   6 C        2.896    -0.100    30.524     9.058
    35   8 O        0.858    -0.500    23.784     6.539
    36   6 C        2.901     0.012    27.758     8.639
    37   6 C        2.898    -0.045    29.121     8.848
    38   6 C        2.895    -0.007    28.205     8.708
    39   6 C        3.806    -0.086    22.133     6.697
    40   6 C        3.728     0.112    18.836     6.196
    41   6 C        2.897    -0.068    29.693     8.934
    42   8 O        1.652    -0.518    23.279     6.513
    43   6 C        2.896    -0.032    28.800     8.799
    44   6 C        2.901    -0.047    29.172     8.856
    45   6 C        2.895    -0.045    29.112     8.846
    46   6 C        3.806    -0.061    21.664     6.626
    47   6 C        3.802    -0.055    21.567     6.612
    48   6 C        3.800    -0.061    21.677     6.629
    49   6 C        3.799    -0.056    21.581     6.614
    50   6 C        3.750    -0.110    22.665     6.789
    51   8 O        1.657    -0.431    21.462     6.254
    52   8 O        1.657    -0.450    21.843     6.309
    53   6 C        3.629     0.233    17.337     5.996
    54   6 C        3.722     0.097    19.085     6.239
    55   6 C        3.721     0.093    19.157     6.251
    56   6 C        3.720     0.078    19.395     6.290
    57   6 C        3.740     0.092    19.134     6.241
    58   8 O        1.696    -0.358    20.042     6.044
    59   6 C        3.675     0.071    19.615     6.346
    60   8 O        1.651    -0.472    22.306     6.376
    61   8 O        1.652    -0.474    22.339     6.380
    62   8 O        1.652    -0.492    22.727     6.435
    63   8 O        1.654    -0.479    22.456     6.397
    64   6 C        2.969    -0.026    28.660     8.781
    65   6 C        2.923    -0.039    28.959     8.825
    66   6 C        2.918    -0.036    28.902     8.816
    67   6 C        2.991     0.020    27.559     8.611
    68   6 C        2.989     0.018    27.609     8.619
    69   6 C        2.925    -0.024    28.596     8.770
    70   6 C        2.920    -0.039    28.969     8.826
    71   6 C        2.918    -0.029    28.737     8.791
    72   6 C        2.918    -0.030    28.746     8.792
    73   6 C        2.921    -0.032    28.797     8.800
    74   1 H        0.926     0.062     2.180     2.309
    75   1 H        0.926     0.072     2.065     2.247
    76   1 H        0.924     0.066     2.132     2.284
    77   1 H        0.924     0.037     2.496     2.471
    78   1 H        0.924     0.057     2.240     2.341
    79   1 H        0.924     0.078     1.998     2.211
    80   1 H        0.923     0.050     2.320     2.382
    81   1 H        0.924     0.039     2.467     2.456
    82   1 H        0.924     0.051     2.307     2.375
    83   1 H        0.804     0.369     0.546     1.161
    84   1 H        0.802     0.338     0.618     1.235
    85   1 H        0.924     0.080     1.975     2.198
    86   1 H        0.924     0.050     2.320     2.382
    87   1 H        0.802     0.331     0.635     1.252
    88   1 H        0.923     0.059     2.211     2.326
    89   1 H        0.923     0.051     2.303     2.373
    90   1 H        0.923     0.083     1.950     2.184
    91   1 H        0.923     0.042     2.425     2.435
    92   1 H        0.924     0.049     2.332     2.388
    93   1 H        0.802     0.337     0.620     1.237
    94   1 H        0.802     0.321     0.661     1.277
    95   1 H        0.924     0.102     1.764     2.077
    96   1 H        0.924     0.084     1.934     2.175
    97   1 H        0.926     0.105     1.738     2.062
    98   1 H        0.926     0.088     1.900     2.155
    99   1 H        0.926     0.077     2.014     2.219
   100   1 H        0.926     0.081     1.971     2.196
   101   1 H        0.924     0.087     1.912     2.162
   102   1 H        0.924     0.083     1.947     2.182
   103   1 H        0.923     0.043     2.406     2.426
   104   1 H        0.926     0.067     2.116     2.275
   105   1 H        0.804     0.350     0.588     1.204
   106   1 H        0.926     0.031     2.578     2.511
   107   1 H        0.926     0.055     2.262     2.352
   108   1 H        0.926     0.029     2.602     2.522
   109   1 H        0.924     0.041     2.442     2.444
   110   1 H        0.924     0.035     2.523     2.484
   111   1 H        0.924     0.036     2.503     2.474
   112   1 H        0.924     0.019     2.750     2.593
   113   1 H        0.924     0.032     2.563     2.504
   114   1 H        0.924     0.034     2.534     2.489
   115   1 H        0.924     0.022     2.700     2.569
   116   1 H        0.924     0.030     2.586     2.515
   117   1 H        0.924     0.036     2.503     2.474
   118   1 H        0.924     0.039     2.458     2.452
   119   1 H        0.924     0.037     2.489     2.467
   120   1 H        0.803     0.344     0.602     1.219
   121   1 H        0.804     0.379     0.525     1.138
   122   1 H        0.923     0.056     2.250     2.346
   123   1 H        0.924     0.012     2.863     2.646
   124   1 H        0.923     0.067     2.114     2.274
   125   1 H        0.923     0.069     2.093     2.262
   126   1 H        0.923     0.043     2.411     2.428
   127   1 H        0.924     0.077     2.009     2.217
   128   1 H        0.924     0.060     2.200     2.320
   129   1 H        0.802     0.325     0.652     1.268
   130   1 H        0.802     0.340     0.612     1.229
   131   1 H        0.802     0.336     0.623     1.240
   132   1 H        0.803     0.356     0.574     1.190
   133   1 H        0.926     0.068     2.104     2.268
   134   1 H        0.926     0.055     2.255     2.348
   135   1 H        0.926     0.059     2.215     2.327
   136   1 H        0.926     0.052     2.298     2.371
   137   1 H        0.926     0.054     2.275     2.358
   138   1 H        0.926     0.051     2.306     2.375
   139   1 H        0.926     0.052     2.289     2.366

 Mol. C6AA /au·bohr⁶  :     193037.085681
 Mol. C8AA /au·bohr⁸  :    4432987.686705
 Mol. α(0) /au        :        662.974381


Wiberg/Mayer (AO) data.
largest (>0.10) Wiberg bond orders for each atom

 ---------------------------------------------------------------------------
     #   Z sym  total        # sym  WBO       # sym  WBO       # sym  WBO
 ---------------------------------------------------------------------------
     1   6 C    3.944 --     6 C    1.385     2 C    1.335    51 O    1.080
     2   6 C    3.972 --     3 C    1.391     1 C    1.335     7 C    0.990
     3   6 C    3.987 --     4 C    1.425     2 C    1.391    13 C    1.004
     4   6 C    3.979 --     3 C    1.425     5 C    1.360    74 H    0.962
     5   6 C    3.945 --     6 C    1.383     4 C    1.360    52 O    1.075
     6   6 C    3.979 --     1 C    1.385     5 C    1.383    75 H    0.963
     7   6 C    3.929 --     2 C    0.990     8 C    0.948    12 O    0.947
                            76 H    0.944
     8   6 C    3.953 --    15 O    0.994     9 C    0.966    77 H    0.953
                             7 C    0.948
     9   6 C    3.924 --    10 C    0.969     8 C    0.966    78 H    0.951
                            17 O    0.928
    10   6 C    3.927 --     9 C    0.969    11 C    0.960    16 O    0.948
                            79 H    0.937
    11   6 C    3.945 --    18 C    0.978    12 O    0.967    10 C    0.960
                            80 H    0.956
    12   8 O    2.081 --    11 C    0.967     7 C    0.947
    13   6 C    3.952 --     3 C    1.004    14 O    0.982    81 H    0.970
                            82 H    0.949
    14   8 O    1.904 --    13 C    0.982    83 H    0.849
    15   8 O    1.929 --     8 C    0.994    84 H    0.833
    16   8 O    2.097 --    20 C    0.968    10 C    0.948
    17   8 O    2.268 --    33 C    1.062     9 C    0.928    35 O    0.132
    18   6 C    3.955 --    19 O    1.012    11 C    0.978    85 H    0.967
                            86 H    0.964
    19   8 O    1.938 --    18 C    1.012    87 H    0.855
    20   6 C    3.916 --    16 O    0.968    21 O    0.967    25 C    0.952
                            88 H    0.950
    21   8 O    2.071 --    20 C    0.967    22 C    0.942
    22   6 C    3.931 --    29 C    0.980    23 C    0.962    89 H    0.957
                            21 O    0.942
    23   6 C    3.960 --    28 O    1.008    22 C    0.962    24 C    0.962
                            90 H    0.956
    24   6 C    3.964 --    26 O    1.003    25 C    0.963    23 C    0.962
                            91 H    0.954
    25   6 C    3.940 --    24 C    0.963    27 O    0.955    20 C    0.952
                            92 H    0.941
    26   8 O    1.941 --    24 C    1.003    93 H    0.831
    27   8 O    2.100 --    53 C    0.984    25 C    0.955
    28   8 O    1.976 --    23 C    1.008    94 H    0.848
    29   6 C    3.925 --    22 C    0.980    30 O    0.963    95 H    0.960
                            96 H    0.959
    30   8 O    2.298 --    31 C    1.107    29 C    0.963    32 O    0.155
    31   6 C    3.897 --    32 O    1.678    30 O    1.107    64 C    1.015
    32   8 O    1.997 --    31 C    1.678    30 O    0.155
    33   6 C    3.888 --    35 O    1.569    34 C    1.113    17 O    1.062
    34   6 C    3.970 --    36 C    1.681    33 C    1.113    97 H    0.934
    35   8 O    1.979 --    33 C    1.569    17 O    0.132
    36   6 C    3.966 --    34 C    1.681    37 C    1.164    98 H    0.954
    37   6 C    3.985 --    38 C    1.762    36 C    1.164    99 H    0.959
    38   6 C    3.971 --    37 C    1.762    39 C    1.048   100 H    0.949
    39   6 C    3.990 --    38 C    1.048    40 C    0.983   102 H    0.942
                           101 H    0.941
    40   6 C    3.950 --    41 C    1.001    39 C    0.983    42 O    0.970
                           103 H    0.958
    41   6 C    3.977 --    43 C    1.839    40 C    1.001   104 H    0.955
                            45 C    0.131
    42   8 O    1.912 --    40 C    0.970   105 H    0.862
    43   6 C    3.991 --    41 C    1.839    44 C    1.122   106 H    0.964
    44   6 C    3.988 --    45 C    1.833    43 C    1.122   107 H    0.956
    45   6 C    3.983 --    44 C    1.833    46 C    1.027   108 H    0.967
                            41 C    0.131
    46   6 C    3.996 --    45 C    1.027    47 C    0.985   110 H    0.975
                           109 H    0.970
    47   6 C    3.988 --    48 C    1.006    46 C    0.985   112 H    0.975
                           111 H    0.970
    48   6 C    3.996 --    49 C    1.006    47 C    1.006   114 H    0.977
                           113 H    0.977
    49   6 C    3.995 --    50 C    1.021    48 C    1.006   115 H    0.977
                           116 H    0.972
    50   6 C    3.995 --    49 C    1.021   119 H    0.987   118 H    0.987
                           117 H    0.987
    51   8 O    2.093 --     1 C    1.080   120 H    0.829
    52   8 O    2.071 --     5 C    1.075   121 H    0.838
    53   6 C    3.919 --    27 O    0.984    58 O    0.954    54 C    0.950
                           122 H    0.946
    54   6 C    3.961 --    62 O    0.999    55 C    0.967    53 C    0.950
                           123 H    0.936
    55   6 C    3.959 --    61 O    1.006    54 C    0.967   124 H    0.960
                            56 C    0.960
    56   6 C    3.959 --    60 O    1.003    57 C    0.960    55 C    0.960
                           125 H    0.957
    57   6 C    3.928 --    59 C    0.979    56 C    0.960   126 H    0.956
                            58 O    0.935
    58   8 O    2.073 --    53 C    0.954    57 C    0.935
    59   6 C    3.953 --    63 O    1.009    57 C    0.979   128 H    0.965
                           127 H    0.963
    60   8 O    1.946 --    56 C    1.003   129 H    0.843
    61   8 O    1.948 --    55 C    1.006   130 H    0.846
    62   8 O    1.925 --    54 C    0.999   131 H    0.834
    63   8 O    1.942 --    59 C    1.009   132 H    0.856
    64   6 C    3.983 --    69 C    1.484    65 C    1.266    31 C    1.015
    65   6 C    3.988 --    66 C    1.575    64 C    1.266   133 H    0.958
    66   6 C    3.991 --    65 C    1.575    67 C    1.269   134 H    0.966
                            69 C    0.110
    67   6 C    3.990 --    70 C    1.281    66 C    1.269    68 C    1.251
    68   6 C    3.990 --    69 C    1.290    73 C    1.270    67 C    1.251
    69   6 C    3.987 --    64 C    1.484    68 C    1.290   135 H    0.964
                            66 C    0.110
    70   6 C    3.990 --    71 C    1.556    67 C    1.281   136 H    0.967
                            73 C    0.119
    71   6 C    3.982 --    70 C    1.556    72 C    1.320   137 H    0.969
    72   6 C    3.991 --    73 C    1.560    71 C    1.320   138 H    0.969
    73   6 C    3.989 --    72 C    1.560    68 C    1.270   139 H    0.966
                            70 C    0.119
    74   1 H    0.996 --     4 C    0.962
    75   1 H    0.994 --     6 C    0.963
    76   1 H    0.995 --     7 C    0.944
    77   1 H    0.998 --     8 C    0.953
    78   1 H    0.996 --     9 C    0.951
    79   1 H    0.994 --    10 C    0.937
    80   1 H    0.997 --    11 C    0.956
    81   1 H    0.998 --    13 C    0.970
    82   1 H    0.997 --    13 C    0.949
    83   1 H    0.863 --    14 O    0.849
    84   1 H    0.886 --    15 O    0.833
    85   1 H    0.993 --    18 C    0.967
    86   1 H    0.997 --    18 C    0.964
    87   1 H    0.890 --    19 O    0.855
    88   1 H    0.996 --    20 C    0.950
    89   1 H    0.997 --    22 C    0.957
    90   1 H    0.993 --    23 C    0.956
    91   1 H    0.998 --    24 C    0.954
    92   1 H    0.998 --    25 C    0.941
    93   1 H    0.886 --    26 O    0.831
    94   1 H    0.897 --    28 O    0.848
    95   1 H    0.988 --    29 C    0.960
    96   1 H    0.992 --    29 C    0.959
    97   1 H    0.989 --    34 C    0.934
    98   1 H    0.992 --    36 C    0.954
    99   1 H    0.993 --    37 C    0.959
   100   1 H    0.993 --    38 C    0.949
   101   1 H    0.988 --    39 C    0.941
   102   1 H    0.990 --    39 C    0.942
   103   1 H    0.998 --    40 C    0.958
   104   1 H    0.995 --    41 C    0.955
   105   1 H    0.877 --    42 O    0.862
   106   1 H    0.999 --    43 C    0.964
   107   1 H    0.997 --    44 C    0.956
   108   1 H    0.999 --    45 C    0.967
   109   1 H    0.998 --    46 C    0.970
   110   1 H    0.997 --    46 C    0.975
   111   1 H    0.999 --    47 C    0.970
   112   1 H    1.000 --    47 C    0.975
   113   1 H    0.999 --    48 C    0.977
   114   1 H    0.999 --    48 C    0.977
   115   1 H    0.999 --    49 C    0.977
   116   1 H    0.999 --    49 C    0.972
   117   1 H    0.998 --    50 C    0.987
   118   1 H    0.998 --    50 C    0.987
   119   1 H    0.999 --    50 C    0.987
   120   1 H    0.881 --    51 O    0.829
   121   1 H    0.856 --    52 O    0.838
   122   1 H    0.996 --    53 C    0.946
   123   1 H    1.000 --    54 C    0.936
   124   1 H    0.995 --    55 C    0.960
   125   1 H    0.995 --    56 C    0.957
   126   1 H    0.998 --    57 C    0.956
   127   1 H    0.994 --    59 C    0.963
   128   1 H    0.996 --    59 C    0.965
   129   1 H    0.895 --    60 O    0.843
   130   1 H    0.884 --    61 O    0.846
   131   1 H    0.887 --    62 O    0.834
   132   1 H    0.873 --    63 O    0.856
   133   1 H    0.995 --    65 C    0.958
   134   1 H    0.996 --    66 C    0.966
   135   1 H    0.996 --    69 C    0.964
   136   1 H    0.997 --    70 C    0.967
   137   1 H    0.997 --    71 C    0.969
   138   1 H    0.997 --    72 C    0.969
   139   1 H    0.997 --    73 C    0.966
 ---------------------------------------------------------------------------

Topologies differ in total number of bonds
Writing topology from bond orders to xtbtopo.mol

molecular dipole:
                 x           y           z       tot (Debye)
 q only:        2.703       2.089      -2.752
   full:        3.292       1.344      -2.937      11.722
molecular quadrupole (traceless):
                xx          xy          yy          xz          yz          zz
 q only:        9.578     -28.107     -12.671      11.592     -13.203       3.093
  q+dip:       -6.409     -40.327     -16.356      15.938     -15.958      22.765
   full:       -6.335     -40.596     -12.844      14.574     -12.063      19.180


           -------------------------------------------------
          | TOTAL ENERGY             -230.422431348219 Eh   |
          | GRADIENT NORM               0.128607187532 Eh/α |
          | HOMO-LUMO GAP               1.422872691797 eV   |
           -------------------------------------------------

------------------------------------------------------------------------
 * finished run on 2026/06/19 at 18:52:26.136     
------------------------------------------------------------------------
 total:
 * wall-time:     0 d,  0 h,  0 min,  0.298 sec
 *  cpu-time:     0 d,  0 h,  0 min,  4.515 sec
 * ratio c/w:    15.174 speedup
 SCF:
 * wall-time:     0 d,  0 h,  0 min,  0.246 sec
 *  cpu-time:     0 d,  0 h,  0 min,  3.883 sec
 * ratio c/w:    15.769 speedup

normal termination of xtb
