      -----------------------------------------------------------      
     |                   =====================                   |     
     |                           x T B                           |     
     |                   =====================                   |     
     |                         S. Grimme                         |     
     |          Mulliken Center for Theoretical Chemistry        |     
     |                    University of Bonn                     |     
      -----------------------------------------------------------      

   * xtb version 6.7.1 (edcfbbe) compiled by 'albert@albert-system' on 2024-07-22

   xtb is free software: you can redistribute it and/or modify it under
   the terms of the GNU Lesser General Public License as published by
   the Free Software Foundation, either version 3 of the License, or
   (at your option) any later version.
   
   xtb is distributed in the hope that it will be useful,
   but WITHOUT ANY WARRANTY; without even the implied warranty of
   MERCHANTABILITY or FITNESS FOR A PARTICULAR PURPOSE.  See the
   GNU Lesser General Public License for more details.
   
   Cite this work as:
   * C. Bannwarth, E. Caldeweyher, S. Ehlert, A. Hansen, P. Pracht,
     J. Seibert, S. Spicher, S. Grimme, WIREs Comput. Mol. Sci., 2020, 11,
     e01493. DOI: 10.1002/wcms.1493
   
   for GFN2-xTB:
   * C. Bannwarth, S. Ehlert and S. Grimme., J. Chem. Theory Comput., 2019,
     15, 1652-1671. DOI: 10.1021/acs.jctc.8b01176
   for GFN1-xTB:
   * S. Grimme, C. Bannwarth, P. Shushkov, J. Chem. Theory Comput., 2017,
     13, 1989-2009. DOI: 10.1021/acs.jctc.7b00118
   for GFN0-xTB:
   * P. Pracht, E. Caldeweyher, S. Ehlert, S. Grimme, ChemRxiv, 2019, preprint.
     DOI: 10.26434/chemrxiv.8326202.v1
   for GFN-FF:
   * S. Spicher and S. Grimme, Angew. Chem. Int. Ed., 2020, 59, 15665-15673.
     DOI: 10.1002/anie.202004239
   
   for ALPB and GBSA implicit solvation:
   * S. Ehlert, M. Stahn, S. Spicher, S. Grimme, J. Chem. Theory Comput.,
     2021, 17, 4250-4261. DOI: 10.1021/acs.jctc.1c00471
   
   for ddCOSMO and CPCM-X implicit solvation:
   * M. Stahn, S. Ehlert, S. Grimme, J. Phys. Chem. A,
     2023, XX, XXXX-XXXX. DOI: 10.1021/acs.jpca.3c04382
   
   for DFT-D4:
   * E. Caldeweyher, C. Bannwarth and S. Grimme, J. Chem. Phys., 2017,
     147, 034112. DOI: 10.1063/1.4993215
   * E. Caldeweyher, S. Ehlert, A. Hansen, H. Neugebauer, S. Spicher,
     C. Bannwarth and S. Grimme, J. Chem. Phys., 2019, 150, 154122.
     DOI: 10.1063/1.5090222
   * E. Caldeweyher, J.-M. Mewes, S. Ehlert and S. Grimme, Phys. Chem. Chem. Phys.
     2020, 22, 8499-8512. DOI: 10.1039/D0CP00502A
   
   for sTDA-xTB:
   * S. Grimme and C. Bannwarth, J. Chem. Phys., 2016, 145, 054103.
     DOI: 10.1063/1.4959605
   
   in the mass-spec context:
   * V. Asgeirsson, C. Bauer and S. Grimme, Chem. Sci., 2017, 8, 4879.
     DOI: 10.1039/c7sc00601b
   * J. Koopman and S. Grimme, ACS Omega 2019, 4, 12, 15120-15133.
     DOI: 10.1021/acsomega.9b02011
   
   for metadynamics refer to:
   * S. Grimme, J. Chem. Theory Comput., 2019, 155, 2847-2862
     DOI: 10.1021/acs.jctc.9b00143
   
   for SPH calculations refer to:
   * S. Spicher and S. Grimme, J. Chem. Theory Comput., 2021, 17, 1701-1714
     DOI: 10.1021/acs.jctc.0c01306
   
   for ONIOM refer to:
   * C. Plett, A. Katbashev, S. Ehlert, S. Grimme, M. Bursch,
     Phys. Chem. Chem. Phys., 2023, 25, 17860-17868. DOI: 10.1039/D3CP02178E
   
   for DIPRO refer to:
   * J. Kohn, N. Gildemeister, S. Grimme, D. Fazzi, A. Hansen,
     J. Chem. Phys., 2023, just accepted.
   
   for PTB refer to:
   * S. Grimme, M. Mueller, A. Hansen, J. Chem. Phys., 2023, 158, 124111.
     DOI: 10.1063/5.0137838
   
   with help from (in alphabetical order)
   P. Atkinson, C. Bannwarth, F. Bohle, G. Brandenburg, E. Caldeweyher
   M. Checinski, S. Dohm, S. Ehlert, S. Ehrlich, I. Gerasimov, C. Hölzer
   A. Katbashev, J. Kohn, J. Koopman, C. Lavigne, S. Lehtola, F. März, M. Müller,
   F. Musil, H. Neugebauer, J. Pisarek, C. Plett, P. Pracht, F. Pultar,
   J. Seibert, P. Shushkov, S. Spicher, M. Stahn, M. Steiner, T. Strunk,
   J. Stückrath, T. Rose, and J. Unsleber
   
 * started run on 2026/06/19 at 18:52:26.466     
   ID    Z sym.   atoms
    1    6 C      1-11, 13, 18, 20, 22-25, 29, 31, 33, 34, 36-41, 43-50,
                  53-57, 59, 64-73
    2    8 O      12, 14-17, 19, 21, 26-28, 30, 32, 35, 42, 51, 52, 58, 60-63
    3    1 H      74-139

           -------------------------------------------------
          |                Calculation Setup                |
           -------------------------------------------------

          program call               : xtb PAPU-0076/conf03.xyz --gfn 2 --alpb water --chrg 0 --uhf 0 --namespace PAPU-0076/conf03_water
          hostname                   : cpu10
          calculation namespace      : PAPU-0076/conf03_water
          coordinate file            : PAPU-0076/conf03.xyz
          omp threads                :                    16


           -------------------------------------------------
          |                 G F N 2 - x T B                 |
           -------------------------------------------------

        Reference                      10.1021/acs.jctc.8b01176
      * Hamiltonian:
        H0-scaling (s, p, d)           1.850000    2.230000    2.230000
        zeta-weighting                 0.500000
      * Dispersion:
        s8                             2.700000
        a1                             0.520000
        a2                             5.000000
        s9                             5.000000
      * Repulsion:
        kExp                           1.500000    1.000000
        rExp                           1.000000
      * Coulomb:
        alpha                          2.000000
        third order                    shell-resolved
        anisotropic                    true
        a3                             3.000000
        a5                             4.000000
        cn-shift                       1.200000
        cn-exp                         4.000000
        max-rad                        5.000000

      * Solvation model:               ALPB
        Solvent                        water
        Parameter file                 internal GFN2-xTB/ALPB
        Dielectric constant                8.0200E+01
        Reference state                gsolv [1 M gas/solution]
        Free energy shift                  1.0808E-03 Eh       6.7819E-01 kcal/mol
        Temperature                        2.9815E+02 K
        Density                            1.0000E+00 kg/L
        Solvent mass                       1.8000E+01 g/mol
        Interaction kernel             P16
        Born radius scaling (c1)           1.4744E+00
        Born radii integrator          GBOBC
        Born offset                        0.0000E+00 a0       0.0000E+00 AA
        H-bond correction              true
        Ion screening                  false
        Surface tension                    1.0000E-05 Eh       1.5569E+01 dyn/cm
        Grid points                               230 per atom

          ...................................................
          :                      SETUP                      :
          :.................................................:
          :  # basis functions                 358          :
          :  # atomic orbitals                 358          :
          :  # shells                          212          :
          :  # electrons                       400          :
          :  max. iterations                   250          :
          :  Hamiltonian                  GFN2-xTB          :
          :  restarted?                      false          :
          :  GBSA solvation                   true          :
          :  PC potential                    false          :
          :  electronic temp.          300.0000000     K    :
          :  accuracy                    1.0000000          :
          :  -> integral cutoff          0.2500000E+02      :
          :  -> integral neglect         0.1000000E-07      :
          :  -> SCF convergence          0.1000000E-05 Eh   :
          :  -> wf. convergence          0.1000000E-03 e    :
          :  Broyden damping             0.4000000          :
          :  net charge                          0          :
          :  unpaired electrons                  0          :
          ...................................................

 iter      E             dE          RMSdq      gap      omega  full diag
   1   -232.6633649 -0.232663E+03  0.447E+00    2.41       0.0  T
   2   -232.9017174 -0.238353E+00  0.246E+00    1.79       1.0  T
   3   -232.8847616  0.169559E-01  0.103E+00    1.66       1.0  T
   4   -232.9221046 -0.373430E-01  0.342E-01    1.39       1.0  T
   5   -232.9288345 -0.672994E-02  0.135E-01    1.38       1.0  T
   6   -232.9295574 -0.722865E-03  0.696E-02    1.41       1.0  T
   7   -232.9297034 -0.146035E-03  0.317E-02    1.43       1.0  T
   8   -232.9297404 -0.370075E-04  0.152E-02    1.43       1.0  T
   9   -232.9297483 -0.781724E-05  0.705E-03    1.43       1.2  T
  10   -232.9297505 -0.225588E-05  0.414E-03    1.43       2.0  T
  11   -232.9297512 -0.666388E-06  0.195E-03    1.43       4.3  T
  12   -232.9297513 -0.109364E-06  0.764E-04    1.43      11.1  T
  13   -232.9297513 -0.233556E-07  0.361E-04    1.43      23.5  T

   *** convergence criteria satisfied after 13 iterations ***

         #    Occupation            Energy/Eh            Energy/eV
      -------------------------------------------------------------
         1        2.0000           -0.7850336             -21.3619
       ...           ...                  ...                  ...
       194        2.0000           -0.4079425             -11.1007
       195        2.0000           -0.4033013             -10.9744
       196        2.0000           -0.3986688             -10.8483
       197        2.0000           -0.3904203             -10.6239
       198        2.0000           -0.3837222             -10.4416
       199        2.0000           -0.3773104             -10.2671
       200        2.0000           -0.3660467              -9.9606 (HOMO)
       201                         -0.3136288              -8.5343 (LUMO)
       202                         -0.2868106              -7.8045
       203                         -0.2557233              -6.9586
       204                         -0.2361303              -6.4254
       205                         -0.2297704              -6.2524
       ...                                ...                  ...
       358                          0.7019985              19.1024
      -------------------------------------------------------------
                  HL-Gap            0.0524179 Eh            1.4264 eV
             Fermi-level           -0.3398377 Eh           -9.2475 eV

 SCC (total)                   0 d,  0 h,  0 min,  0.249 sec
 SCC setup                      ...        0 min,  0.003 sec (  1.115%)
 Dispersion                     ...        0 min,  0.004 sec (  1.718%)
 classical contributions        ...        0 min,  0.000 sec (  0.084%)
 integral evaluation            ...        0 min,  0.013 sec (  5.070%)
 iterations                     ...        0 min,  0.192 sec ( 77.438%)
 molecular gradient             ...        0 min,  0.034 sec ( 13.635%)
 printout                       ...        0 min,  0.002 sec (  0.924%)

         :::::::::::::::::::::::::::::::::::::::::::::::::::::
         ::                     SUMMARY                     ::
         :::::::::::::::::::::::::::::::::::::::::::::::::::::
         :: total energy            -230.421800302301 Eh    ::
         :: total w/o Gsasa/hb      -230.398036097407 Eh    ::
         :: gradient norm              0.128428164462 Eh/a0 ::
         :: HOMO-LUMO gap              1.426363031503 eV    ::
         ::.................................................::
         :: SCC energy              -232.913613229598 Eh    ::
         :: -> isotropic ES            0.541215706116 Eh    ::
         :: -> anisotropic ES         -0.022038444753 Eh    ::
         :: -> anisotropic XC          0.022065402386 Eh    ::
         :: -> dispersion             -0.195645421973 Eh    ::
         :: -> Gsolv                  -0.073474815582 Eh    ::
         ::    -> Gelec               -0.049710610688 Eh    ::
         ::    -> Gsasa                0.006269555299 Eh    ::
         ::    -> Ghb                 -0.031114519892 Eh    ::
         ::    -> Gshift               0.001080759698 Eh    ::
         :: repulsion energy           2.491812927297 Eh    ::
         :: add. restraining           0.000000000000 Eh    ::
         :: total charge              -0.000000000000 e     ::
         :::::::::::::::::::::::::::::::::::::::::::::::::::::

           -------------------------------------------------
          |                Property Printout                |
           -------------------------------------------------

    * Orbital Energies and Occupations

         #    Occupation            Energy/Eh            Energy/eV
      -------------------------------------------------------------
         1        2.0000           -0.7850336             -21.3619
       ...           ...                  ...                  ...
       188        2.0000           -0.4172993             -11.3553
       189        2.0000           -0.4167019             -11.3390
       190        2.0000           -0.4153584             -11.3025
       191        2.0000           -0.4139673             -11.2646
       192        2.0000           -0.4103101             -11.1651
       193        2.0000           -0.4095194             -11.1436
       194        2.0000           -0.4079425             -11.1007
       195        2.0000           -0.4033013             -10.9744
       196        2.0000           -0.3986688             -10.8483
       197        2.0000           -0.3904203             -10.6239
       198        2.0000           -0.3837222             -10.4416
       199        2.0000           -0.3773104             -10.2671
       200        2.0000           -0.3660467              -9.9606 (HOMO)
       201                         -0.3136288              -8.5343 (LUMO)
       202                         -0.2868106              -7.8045
       203                         -0.2557233              -6.9586
       204                         -0.2361303              -6.4254
       205                         -0.2297704              -6.2524
       206                         -0.2250894              -6.1250
       207                         -0.2193283              -5.9682
       208                         -0.2165740              -5.8933
       209                         -0.1924676              -5.2373
       210                         -0.1584285              -4.3111
       211                         -0.1425204              -3.8782
       ...                                ...                  ...
       358                          0.7019985              19.1024
      -------------------------------------------------------------
                  HL-Gap            0.0524179 Eh            1.4264 eV
             Fermi-level           -0.3398377 Eh           -9.2475 eV

     #   Z          covCN         q      C6AA      α(0)
     1   6 C        2.840     0.139    24.961     8.188
     2   6 C        2.969    -0.042    29.039     8.839
     3   6 C        2.966     0.006    27.883     8.661
     4   6 C        2.927    -0.094    30.355     9.035
     5   6 C        2.837     0.143    24.875     8.173
     6   6 C        2.922    -0.086    30.146     9.004
     7   6 C        3.742     0.097    19.048     6.227
     8   6 C        3.720     0.103    18.996     6.225
     9   6 C        3.746     0.104    18.939     6.208
    10   6 C        3.743     0.094    19.101     6.235
    11   6 C        3.737     0.096    19.070     6.232
    12   8 O        1.695    -0.346    19.814     6.010
    13   6 C        3.681     0.073    19.560     6.334
    14   8 O        1.653    -0.524    23.422     6.533
    15   8 O        1.651    -0.491    22.704     6.432
    16   8 O        1.696    -0.342    19.740     5.999
    17   8 O        1.701    -0.314    19.240     5.922
    18   6 C        3.675     0.071    19.614     6.346
    19   8 O        1.653    -0.475    22.368     6.384
    20   6 C        3.627     0.240    17.243     5.982
    21   8 O        1.697    -0.356    20.006     6.039
    22   6 C        3.734     0.098    19.043     6.228
    23   6 C        3.722     0.093    19.151     6.250
    24   6 C        3.722     0.097    19.076     6.238
    25   6 C        3.732     0.087    19.228     6.259
    26   8 O        1.652    -0.469    22.239     6.366
    27   8 O        1.697    -0.334    19.594     5.976
    28   8 O        1.653    -0.451    21.873     6.313
    29   6 C        3.717     0.066    19.590     6.323
    30   8 O        1.703    -0.258    18.279     5.772
    31   6 C        2.738     0.355    20.972     7.498
    32   8 O        0.857    -0.467    23.071     6.440
    33   6 C        2.721     0.354    20.991     7.500
    34   6 C        2.896    -0.100    30.525     9.059
    35   8 O        0.858    -0.500    23.787     6.539
    36   6 C        2.902     0.012    27.756     8.638
    37   6 C        2.898    -0.045    29.119     8.848
    38   6 C        2.896    -0.008    28.218     8.709
    39   6 C        3.807    -0.086    22.126     6.696
    40   6 C        3.728     0.112    18.837     6.196
    41   6 C        2.896    -0.068    29.703     8.936
    42   8 O        1.652    -0.518    23.285     6.514
    43   6 C        2.897    -0.031    28.777     8.795
    44   6 C        2.900    -0.047    29.165     8.855
    45   6 C        2.894    -0.044    29.086     8.842
    46   6 C        3.806    -0.061    21.677     6.628
    47   6 C        3.801    -0.053    21.533     6.607
    48   6 C        3.800    -0.062    21.696     6.632
    49   6 C        3.798    -0.052    21.510     6.604
    50   6 C        3.750    -0.113    22.732     6.800
    51   8 O        1.657    -0.431    21.457     6.253
    52   8 O        1.657    -0.450    21.844     6.309
    53   6 C        3.629     0.232    17.346     5.998
    54   6 C        3.722     0.097    19.085     6.239
    55   6 C        3.721     0.093    19.153     6.250
    56   6 C        3.720     0.078    19.393     6.290
    57   6 C        3.740     0.093    19.117     6.238
    58   8 O        1.696    -0.358    20.038     6.044
    59   6 C        3.675     0.071    19.621     6.347
    60   8 O        1.651    -0.472    22.302     6.375
    61   8 O        1.652    -0.474    22.343     6.381
    62   8 O        1.652    -0.490    22.681     6.429
    63   8 O        1.653    -0.479    22.456     6.397
    64   6 C        2.969    -0.026    28.660     8.781
    65   6 C        2.923    -0.039    28.963     8.825
    66   6 C        2.918    -0.036    28.906     8.817
    67   6 C        2.991     0.020    27.559     8.611
    68   6 C        2.989     0.018    27.609     8.619
    69   6 C        2.925    -0.024    28.598     8.770
    70   6 C        2.920    -0.039    28.970     8.826
    71   6 C        2.918    -0.029    28.735     8.790
    72   6 C        2.918    -0.030    28.748     8.792
    73   6 C        2.921    -0.032    28.800     8.801
    74   1 H        0.926     0.062     2.180     2.309
    75   1 H        0.926     0.072     2.065     2.247
    76   1 H        0.924     0.066     2.132     2.283
    77   1 H        0.924     0.036     2.497     2.471
    78   1 H        0.924     0.057     2.237     2.339
    79   1 H        0.924     0.078     1.996     2.209
    80   1 H        0.923     0.050     2.320     2.382
    81   1 H        0.924     0.039     2.467     2.456
    82   1 H        0.924     0.051     2.309     2.376
    83   1 H        0.804     0.369     0.546     1.161
    84   1 H        0.803     0.338     0.618     1.235
    85   1 H        0.924     0.080     1.976     2.198
    86   1 H        0.924     0.050     2.318     2.381
    87   1 H        0.802     0.331     0.635     1.252
    88   1 H        0.923     0.059     2.216     2.328
    89   1 H        0.923     0.052     2.295     2.369
    90   1 H        0.923     0.083     1.950     2.184
    91   1 H        0.923     0.039     2.460     2.453
    92   1 H        0.924     0.049     2.335     2.390
    93   1 H        0.802     0.337     0.619     1.236
    94   1 H        0.802     0.321     0.661     1.278
    95   1 H        0.924     0.102     1.763     2.076
    96   1 H        0.924     0.085     1.932     2.174
    97   1 H        0.926     0.105     1.739     2.062
    98   1 H        0.926     0.088     1.899     2.155
    99   1 H        0.926     0.077     2.012     2.218
   100   1 H        0.926     0.080     1.974     2.197
   101   1 H        0.924     0.086     1.917     2.165
   102   1 H        0.924     0.083     1.948     2.183
   103   1 H        0.923     0.043     2.414     2.430
   104   1 H        0.926     0.066     2.127     2.280
   105   1 H        0.804     0.350     0.588     1.204
   106   1 H        0.926     0.030     2.580     2.512
   107   1 H        0.926     0.055     2.262     2.352
   108   1 H        0.926     0.027     2.622     2.532
   109   1 H        0.924     0.043     2.408     2.426
   110   1 H        0.924     0.033     2.549     2.497
   111   1 H        0.924     0.030     2.593     2.518
   112   1 H        0.924     0.028     2.620     2.531
   113   1 H        0.924     0.034     2.531     2.488
   114   1 H        0.924     0.033     2.542     2.493
   115   1 H        0.924     0.020     2.740     2.588
   116   1 H        0.923     0.034     2.531     2.488
   117   1 H        0.925     0.040     2.443     2.444
   118   1 H        0.924     0.036     2.505     2.475
   119   1 H        0.924     0.031     2.570     2.507
   120   1 H        0.803     0.344     0.602     1.219
   121   1 H        0.804     0.379     0.525     1.138
   122   1 H        0.924     0.058     2.227     2.334
   123   1 H        0.924     0.011     2.870     2.649
   124   1 H        0.923     0.067     2.122     2.278
   125   1 H        0.923     0.069     2.098     2.265
   126   1 H        0.923     0.041     2.441     2.443
   127   1 H        0.924     0.078     2.004     2.214
   128   1 H        0.924     0.060     2.200     2.320
   129   1 H        0.801     0.324     0.653     1.269
   130   1 H        0.802     0.340     0.612     1.229
   131   1 H        0.802     0.334     0.629     1.246
   132   1 H        0.803     0.356     0.575     1.191
   133   1 H        0.926     0.069     2.098     2.265
   134   1 H        0.926     0.055     2.256     2.349
   135   1 H        0.926     0.059     2.212     2.326
   136   1 H        0.926     0.052     2.299     2.371
   137   1 H        0.926     0.054     2.276     2.359
   138   1 H        0.926     0.051     2.309     2.376
   139   1 H        0.926     0.053     2.285     2.364

 Mol. C6AA /au·bohr⁶  :     193046.009803
 Mol. C8AA /au·bohr⁸  :    4433034.238520
 Mol. α(0) /au        :        662.992709


Wiberg/Mayer (AO) data.
largest (>0.10) Wiberg bond orders for each atom

 ---------------------------------------------------------------------------
     #   Z sym  total        # sym  WBO       # sym  WBO       # sym  WBO
 ---------------------------------------------------------------------------
     1   6 C    3.944 --     6 C    1.385     2 C    1.335    51 O    1.080
     2   6 C    3.972 --     3 C    1.391     1 C    1.335     7 C    0.990
     3   6 C    3.987 --     4 C    1.425     2 C    1.391    13 C    1.004
     4   6 C    3.979 --     3 C    1.425     5 C    1.360    74 H    0.962
     5   6 C    3.945 --     6 C    1.383     4 C    1.360    52 O    1.075
     6   6 C    3.979 --     1 C    1.385     5 C    1.383    75 H    0.963
     7   6 C    3.929 --     2 C    0.990     8 C    0.948    12 O    0.947
                            76 H    0.943
     8   6 C    3.953 --    15 O    0.994     9 C    0.966    77 H    0.953
                             7 C    0.948
     9   6 C    3.924 --    10 C    0.969     8 C    0.966    78 H    0.951
                            17 O    0.928
    10   6 C    3.927 --     9 C    0.969    11 C    0.960    16 O    0.947
                            79 H    0.937
    11   6 C    3.945 --    18 C    0.978    12 O    0.967    10 C    0.960
                            80 H    0.956
    12   8 O    2.081 --    11 C    0.967     7 C    0.947
    13   6 C    3.952 --     3 C    1.004    14 O    0.982    81 H    0.970
                            82 H    0.950
    14   8 O    1.904 --    13 C    0.982    83 H    0.849
    15   8 O    1.929 --     8 C    0.994    84 H    0.833
    16   8 O    2.098 --    20 C    0.968    10 C    0.947
    17   8 O    2.267 --    33 C    1.063     9 C    0.928    35 O    0.132
    18   6 C    3.955 --    19 O    1.012    11 C    0.978    85 H    0.967
                            86 H    0.964
    19   8 O    1.937 --    18 C    1.012    87 H    0.855
    20   6 C    3.916 --    16 O    0.968    21 O    0.967    25 C    0.952
                            88 H    0.950
    21   8 O    2.071 --    20 C    0.967    22 C    0.942
    22   6 C    3.931 --    29 C    0.980    23 C    0.962    89 H    0.956
                            21 O    0.942
    23   6 C    3.960 --    28 O    1.008    22 C    0.962    24 C    0.961
                            90 H    0.956
    24   6 C    3.964 --    26 O    1.003    25 C    0.963    23 C    0.961
                            91 H    0.956
    25   6 C    3.941 --    24 C    0.963    27 O    0.955    20 C    0.952
                            92 H    0.941
    26   8 O    1.942 --    24 C    1.003    93 H    0.830
    27   8 O    2.100 --    53 C    0.983    25 C    0.955
    28   8 O    1.976 --    23 C    1.008    94 H    0.849
    29   6 C    3.925 --    22 C    0.980    30 O    0.963    95 H    0.960
                            96 H    0.959
    30   8 O    2.297 --    31 C    1.106    29 C    0.963    32 O    0.154
    31   6 C    3.897 --    32 O    1.678    30 O    1.106    64 C    1.016
    32   8 O    1.997 --    31 C    1.678    30 O    0.154
    33   6 C    3.888 --    35 O    1.569    34 C    1.112    17 O    1.063
    34   6 C    3.970 --    36 C    1.681    33 C    1.112    97 H    0.935
    35   8 O    1.978 --    33 C    1.569    17 O    0.132
    36   6 C    3.966 --    34 C    1.681    37 C    1.163    98 H    0.954
    37   6 C    3.985 --    38 C    1.763    36 C    1.163    99 H    0.959
    38   6 C    3.971 --    37 C    1.763    39 C    1.048   100 H    0.949
    39   6 C    3.989 --    38 C    1.048    40 C    0.982   101 H    0.942
                           102 H    0.941
    40   6 C    3.949 --    41 C    1.001    39 C    0.982    42 O    0.970
                           103 H    0.959
    41   6 C    3.979 --    43 C    1.839    40 C    1.001   104 H    0.955
                            45 C    0.130
    42   8 O    1.912 --    40 C    0.970   105 H    0.862
    43   6 C    3.991 --    41 C    1.839    44 C    1.122   106 H    0.964
    44   6 C    3.988 --    45 C    1.835    43 C    1.122   107 H    0.956
    45   6 C    3.983 --    44 C    1.835    46 C    1.026   108 H    0.967
                            41 C    0.130
    46   6 C    3.996 --    45 C    1.026    47 C    0.988   110 H    0.978
                           109 H    0.964
    47   6 C    3.989 --    48 C    1.007    46 C    0.988   111 H    0.974
                           112 H    0.973
    48   6 C    3.996 --    47 C    1.007    49 C    1.006   114 H    0.977
                           113 H    0.976
    49   6 C    3.996 --    50 C    1.021    48 C    1.006   116 H    0.977
                           115 H    0.974
    50   6 C    3.995 --    49 C    1.021   118 H    0.987   119 H    0.987
                           117 H    0.976
    51   8 O    2.093 --     1 C    1.080   120 H    0.829
    52   8 O    2.071 --     5 C    1.075   121 H    0.838
    53   6 C    3.918 --    27 O    0.983    58 O    0.953    54 C    0.950
                           122 H    0.942
    54   6 C    3.961 --    62 O    0.999    55 C    0.967    53 C    0.950
                           123 H    0.935
    55   6 C    3.959 --    61 O    1.005    54 C    0.967    56 C    0.960
                           124 H    0.960
    56   6 C    3.959 --    60 O    1.003    57 C    0.960    55 C    0.960
                           125 H    0.957
    57   6 C    3.929 --    59 C    0.979    56 C    0.960   126 H    0.956
                            58 O    0.936
    58   8 O    2.074 --    53 C    0.953    57 C    0.936
    59   6 C    3.953 --    63 O    1.008    57 C    0.979   128 H    0.965
                           127 H    0.963
    60   8 O    1.945 --    56 C    1.003   129 H    0.844
    61   8 O    1.948 --    55 C    1.005   130 H    0.846
    62   8 O    1.927 --    54 C    0.999   131 H    0.834
    63   8 O    1.942 --    59 C    1.008   132 H    0.857
    64   6 C    3.983 --    69 C    1.484    65 C    1.266    31 C    1.016
    65   6 C    3.988 --    66 C    1.575    64 C    1.266   133 H    0.957
    66   6 C    3.991 --    65 C    1.575    67 C    1.269   134 H    0.966
                            69 C    0.110
    67   6 C    3.990 --    70 C    1.281    66 C    1.269    68 C    1.251
    68   6 C    3.990 --    69 C    1.290    73 C    1.270    67 C    1.251
    69   6 C    3.986 --    64 C    1.484    68 C    1.290   135 H    0.964
                            66 C    0.110
    70   6 C    3.990 --    71 C    1.556    67 C    1.281   136 H    0.967
                            73 C    0.118
    71   6 C    3.982 --    70 C    1.556    72 C    1.320   137 H    0.969
    72   6 C    3.991 --    73 C    1.560    71 C    1.320   138 H    0.969
    73   6 C    3.989 --    72 C    1.560    68 C    1.270   139 H    0.966
                            70 C    0.118
    74   1 H    0.996 --     4 C    0.962
    75   1 H    0.994 --     6 C    0.963
    76   1 H    0.995 --     7 C    0.943
    77   1 H    0.998 --     8 C    0.953
    78   1 H    0.996 --     9 C    0.951
    79   1 H    0.994 --    10 C    0.937
    80   1 H    0.997 --    11 C    0.956
    81   1 H    0.998 --    13 C    0.970
    82   1 H    0.997 --    13 C    0.950
    83   1 H    0.863 --    14 O    0.849
    84   1 H    0.886 --    15 O    0.833
    85   1 H    0.993 --    18 C    0.967
    86   1 H    0.997 --    18 C    0.964
    87   1 H    0.890 --    19 O    0.855
    88   1 H    0.996 --    20 C    0.950
    89   1 H    0.997 --    22 C    0.956
    90   1 H    0.993 --    23 C    0.956
    91   1 H    0.998 --    24 C    0.956
    92   1 H    0.998 --    25 C    0.941
    93   1 H    0.886 --    26 O    0.830
    94   1 H    0.897 --    28 O    0.849
    95   1 H    0.988 --    29 C    0.960
    96   1 H    0.992 --    29 C    0.959
    97   1 H    0.989 --    34 C    0.935
    98   1 H    0.992 --    36 C    0.954
    99   1 H    0.993 --    37 C    0.959
   100   1 H    0.994 --    38 C    0.949
   101   1 H    0.988 --    39 C    0.942
   102   1 H    0.990 --    39 C    0.941
   103   1 H    0.998 --    40 C    0.959
   104   1 H    0.996 --    41 C    0.955
   105   1 H    0.877 --    42 O    0.862
   106   1 H    0.999 --    43 C    0.964
   107   1 H    0.997 --    44 C    0.956
   108   1 H    0.999 --    45 C    0.967
   109   1 H    0.998 --    46 C    0.964
   110   1 H    0.998 --    46 C    0.978
   111   1 H    0.999 --    47 C    0.974
   112   1 H    0.999 --    47 C    0.973
   113   1 H    0.999 --    48 C    0.976
   114   1 H    0.999 --    48 C    0.977
   115   1 H    1.000 --    49 C    0.974
   116   1 H    0.998 --    49 C    0.977
   117   1 H    0.998 --    50 C    0.976
   118   1 H    0.999 --    50 C    0.987
   119   1 H    0.999 --    50 C    0.987
   120   1 H    0.881 --    51 O    0.829
   121   1 H    0.856 --    52 O    0.838
   122   1 H    0.996 --    53 C    0.942
   123   1 H    1.000 --    54 C    0.935
   124   1 H    0.995 --    55 C    0.960
   125   1 H    0.995 --    56 C    0.957
   126   1 H    0.998 --    57 C    0.956
   127   1 H    0.994 --    59 C    0.963
   128   1 H    0.996 --    59 C    0.965
   129   1 H    0.895 --    60 O    0.844
   130   1 H    0.884 --    61 O    0.846
   131   1 H    0.889 --    62 O    0.834
   132   1 H    0.873 --    63 O    0.857
   133   1 H    0.995 --    65 C    0.957
   134   1 H    0.996 --    66 C    0.966
   135   1 H    0.996 --    69 C    0.964
   136   1 H    0.997 --    70 C    0.967
   137   1 H    0.997 --    71 C    0.969
   138   1 H    0.997 --    72 C    0.969
   139   1 H    0.997 --    73 C    0.966
 ---------------------------------------------------------------------------

Topologies differ in total number of bonds
Writing topology from bond orders to xtbtopo.mol

molecular dipole:
                 x           y           z       tot (Debye)
 q only:        2.785       2.030      -2.692
   full:        3.376       1.279      -2.894      11.759
molecular quadrupole (traceless):
                xx          xy          yy          xz          yz          zz
 q only:       10.473     -27.666     -14.040      13.374     -13.366       3.567
  q+dip:       -5.782     -39.581     -16.859      16.676     -16.096      22.642
   full:       -5.563     -39.979     -13.633      15.794     -12.174      19.196


           -------------------------------------------------
          | TOTAL ENERGY             -230.421800302301 Eh   |
          | GRADIENT NORM               0.128428164462 Eh/α |
          | HOMO-LUMO GAP               1.426363031503 eV   |
           -------------------------------------------------

------------------------------------------------------------------------
 * finished run on 2026/06/19 at 18:52:26.772     
------------------------------------------------------------------------
 total:
 * wall-time:     0 d,  0 h,  0 min,  0.306 sec
 *  cpu-time:     0 d,  0 h,  0 min,  4.567 sec
 * ratio c/w:    14.944 speedup
 SCF:
 * wall-time:     0 d,  0 h,  0 min,  0.250 sec
 *  cpu-time:     0 d,  0 h,  0 min,  3.890 sec
 * ratio c/w:    15.573 speedup

normal termination of xtb
