      -----------------------------------------------------------      
     |                   =====================                   |     
     |                           x T B                           |     
     |                   =====================                   |     
     |                         S. Grimme                         |     
     |          Mulliken Center for Theoretical Chemistry        |     
     |                    University of Bonn                     |     
      -----------------------------------------------------------      

   * xtb version 6.7.1 (edcfbbe) compiled by 'albert@albert-system' on 2024-07-22

   xtb is free software: you can redistribute it and/or modify it under
   the terms of the GNU Lesser General Public License as published by
   the Free Software Foundation, either version 3 of the License, or
   (at your option) any later version.
   
   xtb is distributed in the hope that it will be useful,
   but WITHOUT ANY WARRANTY; without even the implied warranty of
   MERCHANTABILITY or FITNESS FOR A PARTICULAR PURPOSE.  See the
   GNU Lesser General Public License for more details.
   
   Cite this work as:
   * C. Bannwarth, E. Caldeweyher, S. Ehlert, A. Hansen, P. Pracht,
     J. Seibert, S. Spicher, S. Grimme, WIREs Comput. Mol. Sci., 2020, 11,
     e01493. DOI: 10.1002/wcms.1493
   
   for GFN2-xTB:
   * C. Bannwarth, S. Ehlert and S. Grimme., J. Chem. Theory Comput., 2019,
     15, 1652-1671. DOI: 10.1021/acs.jctc.8b01176
   for GFN1-xTB:
   * S. Grimme, C. Bannwarth, P. Shushkov, J. Chem. Theory Comput., 2017,
     13, 1989-2009. DOI: 10.1021/acs.jctc.7b00118
   for GFN0-xTB:
   * P. Pracht, E. Caldeweyher, S. Ehlert, S. Grimme, ChemRxiv, 2019, preprint.
     DOI: 10.26434/chemrxiv.8326202.v1
   for GFN-FF:
   * S. Spicher and S. Grimme, Angew. Chem. Int. Ed., 2020, 59, 15665-15673.
     DOI: 10.1002/anie.202004239
   
   for ALPB and GBSA implicit solvation:
   * S. Ehlert, M. Stahn, S. Spicher, S. Grimme, J. Chem. Theory Comput.,
     2021, 17, 4250-4261. DOI: 10.1021/acs.jctc.1c00471
   
   for ddCOSMO and CPCM-X implicit solvation:
   * M. Stahn, S. Ehlert, S. Grimme, J. Phys. Chem. A,
     2023, XX, XXXX-XXXX. DOI: 10.1021/acs.jpca.3c04382
   
   for DFT-D4:
   * E. Caldeweyher, C. Bannwarth and S. Grimme, J. Chem. Phys., 2017,
     147, 034112. DOI: 10.1063/1.4993215
   * E. Caldeweyher, S. Ehlert, A. Hansen, H. Neugebauer, S. Spicher,
     C. Bannwarth and S. Grimme, J. Chem. Phys., 2019, 150, 154122.
     DOI: 10.1063/1.5090222
   * E. Caldeweyher, J.-M. Mewes, S. Ehlert and S. Grimme, Phys. Chem. Chem. Phys.
     2020, 22, 8499-8512. DOI: 10.1039/D0CP00502A
   
   for sTDA-xTB:
   * S. Grimme and C. Bannwarth, J. Chem. Phys., 2016, 145, 054103.
     DOI: 10.1063/1.4959605
   
   in the mass-spec context:
   * V. Asgeirsson, C. Bauer and S. Grimme, Chem. Sci., 2017, 8, 4879.
     DOI: 10.1039/c7sc00601b
   * J. Koopman and S. Grimme, ACS Omega 2019, 4, 12, 15120-15133.
     DOI: 10.1021/acsomega.9b02011
   
   for metadynamics refer to:
   * S. Grimme, J. Chem. Theory Comput., 2019, 155, 2847-2862
     DOI: 10.1021/acs.jctc.9b00143
   
   for SPH calculations refer to:
   * S. Spicher and S. Grimme, J. Chem. Theory Comput., 2021, 17, 1701-1714
     DOI: 10.1021/acs.jctc.0c01306
   
   for ONIOM refer to:
   * C. Plett, A. Katbashev, S. Ehlert, S. Grimme, M. Bursch,
     Phys. Chem. Chem. Phys., 2023, 25, 17860-17868. DOI: 10.1039/D3CP02178E
   
   for DIPRO refer to:
   * J. Kohn, N. Gildemeister, S. Grimme, D. Fazzi, A. Hansen,
     J. Chem. Phys., 2023, just accepted.
   
   for PTB refer to:
   * S. Grimme, M. Mueller, A. Hansen, J. Chem. Phys., 2023, 158, 124111.
     DOI: 10.1063/5.0137838
   
   with help from (in alphabetical order)
   P. Atkinson, C. Bannwarth, F. Bohle, G. Brandenburg, E. Caldeweyher
   M. Checinski, S. Dohm, S. Ehlert, S. Ehrlich, I. Gerasimov, C. Hölzer
   A. Katbashev, J. Kohn, J. Koopman, C. Lavigne, S. Lehtola, F. März, M. Müller,
   F. Musil, H. Neugebauer, J. Pisarek, C. Plett, P. Pracht, F. Pultar,
   J. Seibert, P. Shushkov, S. Spicher, M. Stahn, M. Steiner, T. Strunk,
   J. Stückrath, T. Rose, and J. Unsleber
   
 * started run on 2026/06/19 at 18:52:25.214     
   ID    Z sym.   atoms
    1    6 C      1-11, 13, 18, 20, 22-25, 29, 31, 33, 34, 36-41, 43-50,
                  53-57, 59, 64-73
    2    8 O      12, 14-17, 19, 21, 26-28, 30, 32, 35, 42, 51, 52, 58, 60-63
    3    1 H      74-139

           -------------------------------------------------
          |                Calculation Setup                |
           -------------------------------------------------

          program call               : xtb PAPU-0076/conf01.xyz --gfn 2 --alpb water --chrg 0 --uhf 0 --namespace PAPU-0076/conf01_water
          hostname                   : cpu10
          calculation namespace      : PAPU-0076/conf01_water
          coordinate file            : PAPU-0076/conf01.xyz
          omp threads                :                    16


           -------------------------------------------------
          |                 G F N 2 - x T B                 |
           -------------------------------------------------

        Reference                      10.1021/acs.jctc.8b01176
      * Hamiltonian:
        H0-scaling (s, p, d)           1.850000    2.230000    2.230000
        zeta-weighting                 0.500000
      * Dispersion:
        s8                             2.700000
        a1                             0.520000
        a2                             5.000000
        s9                             5.000000
      * Repulsion:
        kExp                           1.500000    1.000000
        rExp                           1.000000
      * Coulomb:
        alpha                          2.000000
        third order                    shell-resolved
        anisotropic                    true
        a3                             3.000000
        a5                             4.000000
        cn-shift                       1.200000
        cn-exp                         4.000000
        max-rad                        5.000000

      * Solvation model:               ALPB
        Solvent                        water
        Parameter file                 internal GFN2-xTB/ALPB
        Dielectric constant                8.0200E+01
        Reference state                gsolv [1 M gas/solution]
        Free energy shift                  1.0808E-03 Eh       6.7819E-01 kcal/mol
        Temperature                        2.9815E+02 K
        Density                            1.0000E+00 kg/L
        Solvent mass                       1.8000E+01 g/mol
        Interaction kernel             P16
        Born radius scaling (c1)           1.4744E+00
        Born radii integrator          GBOBC
        Born offset                        0.0000E+00 a0       0.0000E+00 AA
        H-bond correction              true
        Ion screening                  false
        Surface tension                    1.0000E-05 Eh       1.5569E+01 dyn/cm
        Grid points                               230 per atom

          ...................................................
          :                      SETUP                      :
          :.................................................:
          :  # basis functions                 358          :
          :  # atomic orbitals                 358          :
          :  # shells                          212          :
          :  # electrons                       400          :
          :  max. iterations                   250          :
          :  Hamiltonian                  GFN2-xTB          :
          :  restarted?                      false          :
          :  GBSA solvation                   true          :
          :  PC potential                    false          :
          :  electronic temp.          300.0000000     K    :
          :  accuracy                    1.0000000          :
          :  -> integral cutoff          0.2500000E+02      :
          :  -> integral neglect         0.1000000E-07      :
          :  -> SCF convergence          0.1000000E-05 Eh   :
          :  -> wf. convergence          0.1000000E-03 e    :
          :  Broyden damping             0.4000000          :
          :  net charge                          0          :
          :  unpaired electrons                  0          :
          ...................................................

 iter      E             dE          RMSdq      gap      omega  full diag
   1   -232.6753214 -0.232675E+03  0.444E+00    2.38       0.0  T
   2   -232.9121644 -0.236843E+00  0.243E+00    1.77       1.0  T
   3   -232.8995397  0.126247E-01  0.998E-01    1.70       1.0  T
   4   -232.9319600 -0.324203E-01  0.314E-01    1.44       1.0  T
   5   -232.9374130 -0.545297E-02  0.125E-01    1.43       1.0  T
   6   -232.9379855 -0.572497E-03  0.656E-02    1.46       1.0  T
   7   -232.9381155 -0.130018E-03  0.292E-02    1.47       1.0  T
   8   -232.9381461 -0.305845E-04  0.139E-02    1.47       1.0  T
   9   -232.9381528 -0.671625E-05  0.602E-03    1.47       1.4  T
  10   -232.9381539 -0.106459E-05  0.395E-03    1.47       2.1  T
  11   -232.9381546 -0.680659E-06  0.184E-03    1.47       4.6  T
  12   -232.9381547 -0.105970E-06  0.711E-04    1.47      11.9  T
  13   -232.9381547 -0.199565E-07  0.327E-04    1.47      25.9  T

   *** convergence criteria satisfied after 13 iterations ***

         #    Occupation            Energy/Eh            Energy/eV
      -------------------------------------------------------------
         1        2.0000           -0.7817851             -21.2735
       ...           ...                  ...                  ...
       194        2.0000           -0.4079811             -11.1017
       195        2.0000           -0.3997194             -10.8769
       196        2.0000           -0.3965073             -10.7895
       197        2.0000           -0.3915477             -10.6546
       198        2.0000           -0.3872695             -10.5381
       199        2.0000           -0.3788174             -10.3081
       200        2.0000           -0.3628071              -9.8725 (HOMO)
       201                         -0.3088222              -8.4035 (LUMO)
       202                         -0.2867636              -7.8032
       203                         -0.2569033              -6.9907
       204                         -0.2330023              -6.3403
       205                         -0.2275059              -6.1908
       ...                                ...                  ...
       358                          0.7023884              19.1130
      -------------------------------------------------------------
                  HL-Gap            0.0539849 Eh            1.4690 eV
             Fermi-level           -0.3358147 Eh           -9.1380 eV

 SCC (total)                   0 d,  0 h,  0 min,  0.244 sec
 SCC setup                      ...        0 min,  0.002 sec (  0.908%)
 Dispersion                     ...        0 min,  0.004 sec (  1.669%)
 classical contributions        ...        0 min,  0.000 sec (  0.043%)
 integral evaluation            ...        0 min,  0.010 sec (  4.262%)
 iterations                     ...        0 min,  0.192 sec ( 78.530%)
 molecular gradient             ...        0 min,  0.034 sec ( 14.019%)
 printout                       ...        0 min,  0.001 sec (  0.552%)

         :::::::::::::::::::::::::::::::::::::::::::::::::::::
         ::                     SUMMARY                     ::
         :::::::::::::::::::::::::::::::::::::::::::::::::::::
         :: total energy            -230.427584820858 Eh    ::
         :: total w/o Gsasa/hb      -230.401424657159 Eh    ::
         :: gradient norm              0.123891924856 Eh/a0 ::
         :: HOMO-LUMO gap              1.469003760174 eV    ::
         ::.................................................::
         :: SCC energy              -232.922205973872 Eh    ::
         :: -> isotropic ES            0.540647933391 Eh    ::
         :: -> anisotropic ES         -0.025501764767 Eh    ::
         :: -> anisotropic XC          0.022226052672 Eh    ::
         :: -> dispersion             -0.194240524304 Eh    ::
         :: -> Gsolv                  -0.075164405009 Eh    ::
         ::    -> Gelec               -0.049004241310 Eh    ::
         ::    -> Gsasa                0.006306483766 Eh    ::
         ::    -> Ghb                 -0.033547407163 Eh    ::
         ::    -> Gshift               0.001080759698 Eh    ::
         :: repulsion energy           2.494621153013 Eh    ::
         :: add. restraining           0.000000000000 Eh    ::
         :: total charge               0.000000000000 e     ::
         :::::::::::::::::::::::::::::::::::::::::::::::::::::

           -------------------------------------------------
          |                Property Printout                |
           -------------------------------------------------

    * Orbital Energies and Occupations

         #    Occupation            Energy/Eh            Energy/eV
      -------------------------------------------------------------
         1        2.0000           -0.7817851             -21.2735
       ...           ...                  ...                  ...
       188        2.0000           -0.4188486             -11.3975
       189        2.0000           -0.4178913             -11.3714
       190        2.0000           -0.4146131             -11.2822
       191        2.0000           -0.4114031             -11.1948
       192        2.0000           -0.4098600             -11.1529
       193        2.0000           -0.4089987             -11.1294
       194        2.0000           -0.4079811             -11.1017
       195        2.0000           -0.3997194             -10.8769
       196        2.0000           -0.3965073             -10.7895
       197        2.0000           -0.3915477             -10.6546
       198        2.0000           -0.3872695             -10.5381
       199        2.0000           -0.3788174             -10.3081
       200        2.0000           -0.3628071              -9.8725 (HOMO)
       201                         -0.3088222              -8.4035 (LUMO)
       202                         -0.2867636              -7.8032
       203                         -0.2569033              -6.9907
       204                         -0.2330023              -6.3403
       205                         -0.2275059              -6.1908
       206                         -0.2245444              -6.1102
       207                         -0.2190900              -5.9617
       208                         -0.2185774              -5.9478
       209                         -0.1936553              -5.2696
       210                         -0.1552481              -4.2245
       211                         -0.1422485              -3.8708
       ...                                ...                  ...
       358                          0.7023884              19.1130
      -------------------------------------------------------------
                  HL-Gap            0.0539849 Eh            1.4690 eV
             Fermi-level           -0.3358147 Eh           -9.1380 eV

     #   Z          covCN         q      C6AA      α(0)
     1   6 C        2.840     0.141    24.931     8.183
     2   6 C        2.970    -0.044    29.077     8.845
     3   6 C        2.966    -0.003    28.101     8.695
     4   6 C        2.926    -0.094    30.359     9.036
     5   6 C        2.838     0.144    24.856     8.170
     6   6 C        2.921    -0.086    30.167     9.007
     7   6 C        3.743     0.098    19.039     6.225
     8   6 C        3.721     0.102    19.009     6.227
     9   6 C        3.752     0.105    18.916     6.202
    10   6 C        3.744     0.095    19.076     6.231
    11   6 C        3.737     0.096    19.077     6.233
    12   8 O        1.695    -0.345    19.801     6.008
    13   6 C        3.682     0.069    19.634     6.345
    14   8 O        1.654    -0.515    23.223     6.505
    15   8 O        1.651    -0.489    22.666     6.427
    16   8 O        1.697    -0.343    19.761     6.002
    17   8 O        1.701    -0.314    19.237     5.922
    18   6 C        3.674     0.071    19.620     6.347
    19   8 O        1.653    -0.474    22.344     6.381
    20   6 C        3.628     0.240    17.244     5.981
    21   8 O        1.697    -0.358    20.034     6.043
    22   6 C        3.734     0.098    19.042     6.228
    23   6 C        3.722     0.091    19.172     6.253
    24   6 C        3.721     0.095    19.112     6.244
    25   6 C        3.733     0.087    19.219     6.257
    26   8 O        1.652    -0.469    22.244     6.367
    27   8 O        1.697    -0.335    19.618     5.980
    28   8 O        1.653    -0.453    21.914     6.319
    29   6 C        3.722     0.066    19.574     6.318
    30   8 O        1.703    -0.260    18.306     5.777
    31   6 C        2.744     0.355    20.974     7.499
    32   8 O        0.857    -0.467    23.059     6.438
    33   6 C        2.727     0.354    20.984     7.499
    34   6 C        2.896    -0.098    30.461     9.049
    35   8 O        0.858    -0.490    23.569     6.509
    36   6 C        2.902     0.010    27.800     8.645
    37   6 C        2.898    -0.047    29.164     8.855
    38   6 C        2.895    -0.007    28.200     8.707
    39   6 C        3.806    -0.086    22.128     6.696
    40   6 C        3.728     0.113    18.829     6.195
    41   6 C        2.894    -0.070    29.746     8.942
    42   8 O        1.652    -0.517    23.253     6.510
    43   6 C        2.896    -0.038    28.954     8.822
    44   6 C        2.897    -0.052    29.290     8.874
    45   6 C        2.895    -0.045    29.127     8.849
    46   6 C        3.805    -0.062    21.690     6.630
    47   6 C        3.803    -0.062    21.693     6.631
    48   6 C        3.800    -0.063    21.708     6.634
    49   6 C        3.799    -0.053    21.528     6.606
    50   6 C        3.750    -0.110    22.668     6.790
    51   8 O        1.657    -0.431    21.450     6.252
    52   8 O        1.657    -0.453    21.905     6.318
    53   6 C        3.631     0.232    17.336     5.994
    54   6 C        3.723     0.093    19.145     6.248
    55   6 C        3.723     0.100    19.028     6.229
    56   6 C        3.720     0.084    19.291     6.273
    57   6 C        3.738     0.092    19.141     6.243
    58   8 O        1.696    -0.360    20.075     6.049
    59   6 C        3.675     0.068    19.665     6.354
    60   8 O        1.651    -0.466    22.179     6.357
    61   8 O        1.654    -0.490    22.679     6.429
    62   8 O        1.652    -0.491    22.695     6.431
    63   8 O        1.653    -0.476    22.382     6.387
    64   6 C        2.969    -0.027    28.663     8.782
    65   6 C        2.921    -0.027    28.681     8.782
    66   6 C        2.919    -0.032    28.790     8.799
    67   6 C        2.990     0.020    27.551     8.610
    68   6 C        2.989     0.017    27.619     8.621
    69   6 C        2.928    -0.034    28.855     8.809
    70   6 C        2.920    -0.034    28.854     8.809
    71   6 C        2.918    -0.028    28.696     8.784
    72   6 C        2.918    -0.031    28.769     8.796
    73   6 C        2.920    -0.036    28.890     8.814
    74   1 H        0.926     0.062     2.175     2.306
    75   1 H        0.926     0.071     2.076     2.253
    76   1 H        0.924     0.061     2.187     2.313
    77   1 H        0.924     0.040     2.452     2.449
    78   1 H        0.924     0.054     2.268     2.355
    79   1 H        0.924     0.073     2.054     2.241
    80   1 H        0.923     0.051     2.312     2.378
    81   1 H        0.924     0.038     2.474     2.460
    82   1 H        0.924     0.065     2.137     2.286
    83   1 H        0.804     0.362     0.560     1.176
    84   1 H        0.803     0.334     0.628     1.245
    85   1 H        0.924     0.082     1.954     2.186
    86   1 H        0.924     0.050     2.324     2.384
    87   1 H        0.802     0.329     0.639     1.256
    88   1 H        0.923     0.060     2.198     2.319
    89   1 H        0.923     0.051     2.304     2.374
    90   1 H        0.923     0.083     1.952     2.185
    91   1 H        0.923     0.042     2.422     2.434
    92   1 H        0.924     0.048     2.345     2.395
    93   1 H        0.802     0.339     0.614     1.232
    94   1 H        0.802     0.321     0.661     1.277
    95   1 H        0.924     0.101     1.772     2.081
    96   1 H        0.924     0.084     1.934     2.175
    97   1 H        0.926     0.104     1.750     2.069
    98   1 H        0.926     0.085     1.929     2.172
    99   1 H        0.926     0.075     2.036     2.231
   100   1 H        0.926     0.084     1.937     2.176
   101   1 H        0.924     0.081     1.971     2.195
   102   1 H        0.924     0.088     1.901     2.156
   103   1 H        0.923     0.045     2.384     2.414
   104   1 H        0.926     0.072     2.068     2.249
   105   1 H        0.804     0.349     0.591     1.208
   106   1 H        0.926     0.032     2.559     2.502
   107   1 H        0.926     0.029     2.605     2.524
   108   1 H        0.926     0.056     2.249     2.345
   109   1 H        0.924     0.049     2.327     2.385
   110   1 H        0.924     0.040     2.455     2.450
   111   1 H        0.924     0.023     2.691     2.565
   112   1 H        0.924     0.036     2.506     2.476
   113   1 H        0.924     0.034     2.533     2.489
   114   1 H        0.924     0.031     2.579     2.511
   115   1 H        0.924     0.025     2.654     2.548
   116   1 H        0.924     0.022     2.702     2.571
   117   1 H        0.924     0.037     2.494     2.470
   118   1 H        0.924     0.037     2.490     2.468
   119   1 H        0.924     0.040     2.455     2.450
   120   1 H        0.803     0.345     0.599     1.216
   121   1 H        0.804     0.379     0.524     1.137
   122   1 H        0.923     0.056     2.251     2.346
   123   1 H        0.924     0.018     2.770     2.603
   124   1 H        0.923     0.037     2.489     2.467
   125   1 H        0.923     0.074     2.039     2.233
   126   1 H        0.923     0.042     2.421     2.433
   127   1 H        0.924     0.076     2.024     2.225
   128   1 H        0.924     0.060     2.193     2.316
   129   1 H        0.802     0.326     0.649     1.266
   130   1 H        0.804     0.366     0.553     1.168
   131   1 H        0.802     0.335     0.624     1.241
   132   1 H        0.803     0.355     0.578     1.194
   133   1 H        0.926     0.055     2.260     2.351
   134   1 H        0.926     0.061     2.187     2.312
   135   1 H        0.926     0.072     2.068     2.249
   136   1 H        0.926     0.047     2.358     2.401
   137   1 H        0.926     0.053     2.277     2.360
   138   1 H        0.926     0.053     2.282     2.362
   139   1 H        0.926     0.046     2.370     2.407

 Mol. C6AA /au·bohr⁶  :     193039.522713
 Mol. C8AA /au·bohr⁸  :    4433274.795295
 Mol. α(0) /au        :        662.977908


Wiberg/Mayer (AO) data.
largest (>0.10) Wiberg bond orders for each atom

 ---------------------------------------------------------------------------
     #   Z sym  total        # sym  WBO       # sym  WBO       # sym  WBO
 ---------------------------------------------------------------------------
     1   6 C    3.943 --     6 C    1.385     2 C    1.333    51 O    1.082
     2   6 C    3.971 --     3 C    1.390     1 C    1.333     7 C    0.990
     3   6 C    3.986 --     4 C    1.425     2 C    1.390    13 C    0.998
     4   6 C    3.979 --     3 C    1.425     5 C    1.359    74 H    0.962
     5   6 C    3.944 --     6 C    1.383     4 C    1.359    52 O    1.075
     6   6 C    3.980 --     1 C    1.385     5 C    1.383    75 H    0.964
     7   6 C    3.930 --     2 C    0.990    12 O    0.947     8 C    0.947
                            76 H    0.947
     8   6 C    3.953 --    15 O    0.994     9 C    0.967    77 H    0.951
                             7 C    0.947
     9   6 C    3.924 --    10 C    0.969     8 C    0.967    78 H    0.950
                            17 O    0.928
    10   6 C    3.929 --     9 C    0.969    11 C    0.960    16 O    0.948
                            79 H    0.941
    11   6 C    3.945 --    18 C    0.977    12 O    0.967    10 C    0.960
                            80 H    0.956
    12   8 O    2.080 --    11 C    0.967     7 C    0.947
    13   6 C    3.950 --     3 C    0.998    14 O    0.986    81 H    0.969
                            82 H    0.951
    14   8 O    1.921 --    13 C    0.986    83 H    0.855
    15   8 O    1.933 --     8 C    0.994    84 H    0.834
    16   8 O    2.092 --    20 C    0.970    10 C    0.948
    17   8 O    2.265 --    33 C    1.057     9 C    0.928    35 O    0.133
    18   6 C    3.955 --    19 O    1.013    11 C    0.977    85 H    0.966
                            86 H    0.964
    19   8 O    1.940 --    18 C    1.013    87 H    0.855
    20   6 C    3.916 --    16 O    0.970    21 O    0.966    25 C    0.952
                            88 H    0.950
    21   8 O    2.068 --    20 C    0.966    22 C    0.942
    22   6 C    3.931 --    29 C    0.980    23 C    0.961    89 H    0.956
                            21 O    0.942
    23   6 C    3.960 --    28 O    1.009    24 C    0.962    22 C    0.961
                            90 H    0.956
    24   6 C    3.965 --    26 O    1.004    25 C    0.963    23 C    0.962
                            91 H    0.956
    25   6 C    3.939 --    24 C    0.963    27 O    0.955    20 C    0.952
                            92 H    0.944
    26   8 O    1.941 --    24 C    1.004    93 H    0.825
    27   8 O    2.100 --    53 C    0.985    25 C    0.955
    28   8 O    1.974 --    23 C    1.009    94 H    0.848
    29   6 C    3.925 --    22 C    0.980    30 O    0.963    95 H    0.960
                            96 H    0.959
    30   8 O    2.295 --    31 C    1.104    29 C    0.963    32 O    0.153
    31   6 C    3.898 --    32 O    1.676    30 O    1.104    64 C    1.019
    32   8 O    1.994 --    31 C    1.676    30 O    0.153
    33   6 C    3.888 --    35 O    1.589    34 C    1.108    17 O    1.057
    34   6 C    3.969 --    36 C    1.687    33 C    1.108    97 H    0.938
    35   8 O    1.992 --    33 C    1.589    17 O    0.133
    36   6 C    3.967 --    34 C    1.687    37 C    1.161    98 H    0.954
    37   6 C    3.985 --    38 C    1.762    36 C    1.161    99 H    0.959
    38   6 C    3.971 --    37 C    1.762    39 C    1.048   100 H    0.948
    39   6 C    3.990 --    38 C    1.048    40 C    0.985   101 H    0.948
                           102 H    0.936
    40   6 C    3.950 --    41 C    1.000    39 C    0.985    42 O    0.972
                           103 H    0.954
    41   6 C    3.985 --    43 C    1.852    40 C    1.000   104 H    0.949
                            45 C    0.115
    42   8 O    1.917 --    40 C    0.972   105 H    0.863
    43   6 C    3.991 --    41 C    1.852    44 C    1.109   106 H    0.965
    44   6 C    3.990 --    45 C    1.841    43 C    1.109   107 H    0.966
    45   6 C    3.988 --    44 C    1.841    46 C    1.030   108 H    0.955
                            41 C    0.115
    46   6 C    3.997 --    45 C    1.030    47 C    1.005   110 H    0.964
                           109 H    0.954
    47   6 C    3.995 --    48 C    1.008    46 C    1.005   111 H    0.975
                           112 H    0.967
    48   6 C    3.996 --    47 C    1.008    49 C    1.007   113 H    0.977
                           114 H    0.977
    49   6 C    3.997 --    50 C    1.021    48 C    1.007   115 H    0.977
                           116 H    0.977
    50   6 C    3.995 --    49 C    1.021   118 H    0.987   119 H    0.987
                           117 H    0.987
    51   8 O    2.097 --     1 C    1.082   120 H    0.829
    52   8 O    2.070 --     5 C    1.075   121 H    0.838
    53   6 C    3.917 --    27 O    0.985    58 O    0.953    54 C    0.949
                           122 H    0.943
    54   6 C    3.960 --    62 O    0.997    55 C    0.967    53 C    0.949
                           123 H    0.941
    55   6 C    3.963 --    61 O    1.002    56 C    0.967    54 C    0.967
                           124 H    0.958
    56   6 C    3.961 --    60 O    1.009    55 C    0.967    57 C    0.958
                           125 H    0.957
    57   6 C    3.927 --    59 C    0.979    56 C    0.958   126 H    0.956
                            58 O    0.934
    58   8 O    2.073 --    53 C    0.953    57 C    0.934
    59   6 C    3.953 --    63 O    1.009    57 C    0.979   128 H    0.965
                           127 H    0.960
    60   8 O    1.952 --    56 C    1.009   129 H    0.846
    61   8 O    1.924 --    55 C    1.002   130 H    0.848
    62   8 O    1.928 --    54 C    0.997   131 H    0.838
    63   8 O    1.942 --    59 C    1.009   132 H    0.859
    64   6 C    3.983 --    69 C    1.478    65 C    1.271    31 C    1.019
    65   6 C    3.989 --    66 C    1.571    64 C    1.271   133 H    0.966
    66   6 C    3.989 --    65 C    1.571    67 C    1.268   134 H    0.964
                            69 C    0.110
    67   6 C    3.990 --    70 C    1.280    66 C    1.268    68 C    1.250
    68   6 C    3.991 --    69 C    1.291    73 C    1.269    67 C    1.250
    69   6 C    3.986 --    64 C    1.478    68 C    1.291   135 H    0.956
                            66 C    0.110
    70   6 C    3.990 --    71 C    1.557    67 C    1.280   136 H    0.967
                            73 C    0.118
    71   6 C    3.982 --    70 C    1.557    72 C    1.318   137 H    0.969
    72   6 C    3.991 --    73 C    1.563    71 C    1.318   138 H    0.969
    73   6 C    3.987 --    72 C    1.563    68 C    1.269   139 H    0.967
                            70 C    0.118
    74   1 H    0.996 --     4 C    0.962
    75   1 H    0.994 --     6 C    0.964
    76   1 H    0.996 --     7 C    0.947
    77   1 H    0.998 --     8 C    0.951
    78   1 H    0.997 --     9 C    0.950
    79   1 H    0.995 --    10 C    0.941
    80   1 H    0.997 --    11 C    0.956
    81   1 H    0.998 --    13 C    0.969
    82   1 H    0.996 --    13 C    0.951
    83   1 H    0.869 --    14 O    0.855
    84   1 H    0.888 --    15 O    0.834
    85   1 H    0.992 --    18 C    0.966
    86   1 H    0.997 --    18 C    0.964
    87   1 H    0.891 --    19 O    0.855
    88   1 H    0.996 --    20 C    0.950
    89   1 H    0.997 --    22 C    0.956
    90   1 H    0.993 --    23 C    0.956
    91   1 H    0.998 --    24 C    0.956
    92   1 H    0.998 --    25 C    0.944
    93   1 H    0.885 --    26 O    0.825
    94   1 H    0.897 --    28 O    0.848
    95   1 H    0.989 --    29 C    0.960
    96   1 H    0.992 --    29 C    0.959
    97   1 H    0.989 --    34 C    0.938
    98   1 H    0.992 --    36 C    0.954
    99   1 H    0.994 --    37 C    0.959
   100   1 H    0.993 --    38 C    0.948
   101   1 H    0.990 --    39 C    0.948
   102   1 H    0.988 --    39 C    0.936
   103   1 H    0.997 --    40 C    0.954
   104   1 H    0.995 --    41 C    0.949
   105   1 H    0.878 --    42 O    0.863
   106   1 H    0.998 --    43 C    0.965
   107   1 H    0.999 --    44 C    0.966
   108   1 H    0.997 --    45 C    0.955
   109   1 H    0.997 --    46 C    0.954
   110   1 H    0.998 --    46 C    0.964
   111   1 H    0.999 --    47 C    0.975
   112   1 H    0.999 --    47 C    0.967
   113   1 H    0.999 --    48 C    0.977
   114   1 H    0.999 --    48 C    0.977
   115   1 H    0.999 --    49 C    0.977
   116   1 H    1.000 --    49 C    0.977
   117   1 H    0.998 --    50 C    0.987
   118   1 H    0.999 --    50 C    0.987
   119   1 H    0.998 --    50 C    0.987
   120   1 H    0.880 --    51 O    0.829
   121   1 H    0.856 --    52 O    0.838
   122   1 H    0.996 --    53 C    0.943
   123   1 H    1.000 --    54 C    0.941
   124   1 H    0.998 --    55 C    0.958
   125   1 H    0.994 --    56 C    0.957
   126   1 H    0.998 --    57 C    0.956
   127   1 H    0.994 --    59 C    0.960
   128   1 H    0.995 --    59 C    0.965
   129   1 H    0.894 --    60 O    0.846
   130   1 H    0.866 --    61 O    0.848
   131   1 H    0.887 --    62 O    0.838
   132   1 H    0.874 --    63 O    0.859
   133   1 H    0.997 --    65 C    0.966
   134   1 H    0.995 --    66 C    0.964
   135   1 H    0.994 --    69 C    0.956
   136   1 H    0.997 --    70 C    0.967
   137   1 H    0.997 --    71 C    0.969
   138   1 H    0.997 --    72 C    0.969
   139   1 H    0.997 --    73 C    0.967
 ---------------------------------------------------------------------------

Topologies differ in total number of bonds
Writing topology from bond orders to xtbtopo.mol

molecular dipole:
                 x           y           z       tot (Debye)
 q only:        2.499       1.020      -2.357
   full:        3.004       0.002      -2.369       9.724
molecular quadrupole (traceless):
                xx          xy          yy          xz          yz          zz
 q only:       21.238     -15.420      -9.036      21.594     -10.598     -12.202
  q+dip:       14.196     -25.757     -14.044      27.899     -10.893      -0.152
   full:       13.203     -26.147      -9.906      26.069      -7.913      -3.297


           -------------------------------------------------
          | TOTAL ENERGY             -230.427584820858 Eh   |
          | GRADIENT NORM               0.123891924856 Eh/α |
          | HOMO-LUMO GAP               1.469003760174 eV   |
           -------------------------------------------------

------------------------------------------------------------------------
 * finished run on 2026/06/19 at 18:52:25.524     
------------------------------------------------------------------------
 total:
 * wall-time:     0 d,  0 h,  0 min,  0.310 sec
 *  cpu-time:     0 d,  0 h,  0 min,  4.510 sec
 * ratio c/w:    14.569 speedup
 SCF:
 * wall-time:     0 d,  0 h,  0 min,  0.245 sec
 *  cpu-time:     0 d,  0 h,  0 min,  3.854 sec
 * ratio c/w:    15.710 speedup

normal termination of xtb
