      -----------------------------------------------------------      
     |                   =====================                   |     
     |                           x T B                           |     
     |                   =====================                   |     
     |                         S. Grimme                         |     
     |          Mulliken Center for Theoretical Chemistry        |     
     |                    University of Bonn                     |     
      -----------------------------------------------------------      

   * xtb version 6.7.1 (edcfbbe) compiled by 'albert@albert-system' on 2024-07-22

   xtb is free software: you can redistribute it and/or modify it under
   the terms of the GNU Lesser General Public License as published by
   the Free Software Foundation, either version 3 of the License, or
   (at your option) any later version.
   
   xtb is distributed in the hope that it will be useful,
   but WITHOUT ANY WARRANTY; without even the implied warranty of
   MERCHANTABILITY or FITNESS FOR A PARTICULAR PURPOSE.  See the
   GNU Lesser General Public License for more details.
   
   Cite this work as:
   * C. Bannwarth, E. Caldeweyher, S. Ehlert, A. Hansen, P. Pracht,
     J. Seibert, S. Spicher, S. Grimme, WIREs Comput. Mol. Sci., 2020, 11,
     e01493. DOI: 10.1002/wcms.1493
   
   for GFN2-xTB:
   * C. Bannwarth, S. Ehlert and S. Grimme., J. Chem. Theory Comput., 2019,
     15, 1652-1671. DOI: 10.1021/acs.jctc.8b01176
   for GFN1-xTB:
   * S. Grimme, C. Bannwarth, P. Shushkov, J. Chem. Theory Comput., 2017,
     13, 1989-2009. DOI: 10.1021/acs.jctc.7b00118
   for GFN0-xTB:
   * P. Pracht, E. Caldeweyher, S. Ehlert, S. Grimme, ChemRxiv, 2019, preprint.
     DOI: 10.26434/chemrxiv.8326202.v1
   for GFN-FF:
   * S. Spicher and S. Grimme, Angew. Chem. Int. Ed., 2020, 59, 15665-15673.
     DOI: 10.1002/anie.202004239
   
   for ALPB and GBSA implicit solvation:
   * S. Ehlert, M. Stahn, S. Spicher, S. Grimme, J. Chem. Theory Comput.,
     2021, 17, 4250-4261. DOI: 10.1021/acs.jctc.1c00471
   
   for ddCOSMO and CPCM-X implicit solvation:
   * M. Stahn, S. Ehlert, S. Grimme, J. Phys. Chem. A,
     2023, XX, XXXX-XXXX. DOI: 10.1021/acs.jpca.3c04382
   
   for DFT-D4:
   * E. Caldeweyher, C. Bannwarth and S. Grimme, J. Chem. Phys., 2017,
     147, 034112. DOI: 10.1063/1.4993215
   * E. Caldeweyher, S. Ehlert, A. Hansen, H. Neugebauer, S. Spicher,
     C. Bannwarth and S. Grimme, J. Chem. Phys., 2019, 150, 154122.
     DOI: 10.1063/1.5090222
   * E. Caldeweyher, J.-M. Mewes, S. Ehlert and S. Grimme, Phys. Chem. Chem. Phys.
     2020, 22, 8499-8512. DOI: 10.1039/D0CP00502A
   
   for sTDA-xTB:
   * S. Grimme and C. Bannwarth, J. Chem. Phys., 2016, 145, 054103.
     DOI: 10.1063/1.4959605
   
   in the mass-spec context:
   * V. Asgeirsson, C. Bauer and S. Grimme, Chem. Sci., 2017, 8, 4879.
     DOI: 10.1039/c7sc00601b
   * J. Koopman and S. Grimme, ACS Omega 2019, 4, 12, 15120-15133.
     DOI: 10.1021/acsomega.9b02011
   
   for metadynamics refer to:
   * S. Grimme, J. Chem. Theory Comput., 2019, 155, 2847-2862
     DOI: 10.1021/acs.jctc.9b00143
   
   for SPH calculations refer to:
   * S. Spicher and S. Grimme, J. Chem. Theory Comput., 2021, 17, 1701-1714
     DOI: 10.1021/acs.jctc.0c01306
   
   for ONIOM refer to:
   * C. Plett, A. Katbashev, S. Ehlert, S. Grimme, M. Bursch,
     Phys. Chem. Chem. Phys., 2023, 25, 17860-17868. DOI: 10.1039/D3CP02178E
   
   for DIPRO refer to:
   * J. Kohn, N. Gildemeister, S. Grimme, D. Fazzi, A. Hansen,
     J. Chem. Phys., 2023, just accepted.
   
   for PTB refer to:
   * S. Grimme, M. Mueller, A. Hansen, J. Chem. Phys., 2023, 158, 124111.
     DOI: 10.1063/5.0137838
   
   with help from (in alphabetical order)
   P. Atkinson, C. Bannwarth, F. Bohle, G. Brandenburg, E. Caldeweyher
   M. Checinski, S. Dohm, S. Ehlert, S. Ehrlich, I. Gerasimov, C. Hölzer
   A. Katbashev, J. Kohn, J. Koopman, C. Lavigne, S. Lehtola, F. März, M. Müller,
   F. Musil, H. Neugebauer, J. Pisarek, C. Plett, P. Pracht, F. Pultar,
   J. Seibert, P. Shushkov, S. Spicher, M. Stahn, M. Steiner, T. Strunk,
   J. Stückrath, T. Rose, and J. Unsleber
   
 * started run on 2026/06/19 at 18:52:25.536     
   ID    Z sym.   atoms
    1    6 C      1-11, 13, 18, 20, 22-25, 29, 31, 33, 34, 36-41, 43-50,
                  53-57, 59, 64-73
    2    8 O      12, 14-17, 19, 21, 26-28, 30, 32, 35, 42, 51, 52, 58, 60-63
    3    1 H      74-139

           -------------------------------------------------
          |                Calculation Setup                |
           -------------------------------------------------

          program call               : xtb PAPU-0076/conf01.xyz --gfn 2 --alpb octanol --chrg 0 --uhf 0 --namespace PAPU-0076/conf01_octanol
          hostname                   : cpu10
          calculation namespace      : PAPU-0076/conf01_octanol
          coordinate file            : PAPU-0076/conf01.xyz
          omp threads                :                    16


           -------------------------------------------------
          |                 G F N 2 - x T B                 |
           -------------------------------------------------

        Reference                      10.1021/acs.jctc.8b01176
      * Hamiltonian:
        H0-scaling (s, p, d)           1.850000    2.230000    2.230000
        zeta-weighting                 0.500000
      * Dispersion:
        s8                             2.700000
        a1                             0.520000
        a2                             5.000000
        s9                             5.000000
      * Repulsion:
        kExp                           1.500000    1.000000
        rExp                           1.000000
      * Coulomb:
        alpha                          2.000000
        third order                    shell-resolved
        anisotropic                    true
        a3                             3.000000
        a5                             4.000000
        cn-shift                       1.200000
        cn-exp                         4.000000
        max-rad                        5.000000

      * Solvation model:               ALPB
        Solvent                        octanol
        Parameter file                 internal GFN2-xTB/ALPB
        Dielectric constant                9.8629E+00
        Reference state                gsolv [1 M gas/solution]
        Free energy shift                  2.3397E-03 Eh       1.4682E+00 kcal/mol
        Temperature                        2.9815E+02 K
        Density                            8.3000E-01 kg/L
        Solvent mass                       1.3023E+02 g/mol
        Interaction kernel             P16
        Born radius scaling (c1)           1.5898E+00
        Born radii integrator          GBOBC
        Born offset                        0.0000E+00 a0       0.0000E+00 AA
        H-bond correction              true
        Ion screening                  false
        Surface tension                    1.0000E-05 Eh       1.5569E+01 dyn/cm
        Grid points                               230 per atom

          ...................................................
          :                      SETUP                      :
          :.................................................:
          :  # basis functions                 358          :
          :  # atomic orbitals                 358          :
          :  # shells                          212          :
          :  # electrons                       400          :
          :  max. iterations                   250          :
          :  Hamiltonian                  GFN2-xTB          :
          :  restarted?                      false          :
          :  GBSA solvation                   true          :
          :  PC potential                    false          :
          :  electronic temp.          300.0000000     K    :
          :  accuracy                    1.0000000          :
          :  -> integral cutoff          0.2500000E+02      :
          :  -> integral neglect         0.1000000E-07      :
          :  -> SCF convergence          0.1000000E-05 Eh   :
          :  -> wf. convergence          0.1000000E-03 e    :
          :  Broyden damping             0.4000000          :
          :  net charge                          0          :
          :  unpaired electrons                  0          :
          ...................................................

 iter      E             dE          RMSdq      gap      omega  full diag
   1   -232.6915077 -0.232692E+03  0.441E+00    2.38       0.0  T
   2   -232.9347532 -0.243245E+00  0.243E+00    1.46       1.0  T
   3   -232.9233488  0.114044E-01  0.102E+00    1.46       1.0  T
   4   -232.9571985 -0.338497E-01  0.285E-01    1.19       1.0  T
   5   -232.9616075 -0.440904E-02  0.119E-01    1.19       1.0  T
   6   -232.9621792 -0.571636E-03  0.608E-02    1.22       1.0  T
   7   -232.9622965 -0.117290E-03  0.262E-02    1.23       1.0  T
   8   -232.9623185 -0.220119E-04  0.115E-02    1.23       1.0  T
   9   -232.9623240 -0.548570E-05  0.462E-03    1.23       1.8  T
  10   -232.9623247 -0.721856E-06  0.286E-03    1.23       3.0  T
  11   -232.9623250 -0.340402E-06  0.135E-03    1.23       6.3  T
  12   -232.9623251 -0.544120E-07  0.514E-04    1.23      16.5  T
  13   -232.9623251 -0.934651E-08  0.226E-04    1.23      37.6  T

   *** convergence criteria satisfied after 13 iterations ***

         #    Occupation            Energy/Eh            Energy/eV
      -------------------------------------------------------------
         1        2.0000           -0.7970776             -21.6896
       ...           ...                  ...                  ...
       194        2.0000           -0.4147362             -11.2855
       195        2.0000           -0.4085156             -11.1163
       196        2.0000           -0.4037032             -10.9853
       197        2.0000           -0.3973518             -10.8125
       198        2.0000           -0.3927589             -10.6875
       199        2.0000           -0.3854047             -10.4874
       200        2.0000           -0.3675180             -10.0007 (HOMO)
       201                         -0.3223713              -8.7722 (LUMO)
       202                         -0.2920041              -7.9458
       203                         -0.2621524              -7.1335
       204                         -0.2392500              -6.5103
       205                         -0.2366920              -6.4407
       ...                                ...                  ...
       358                          0.6970276              18.9671
      -------------------------------------------------------------
                  HL-Gap            0.0451467 Eh            1.2285 eV
             Fermi-level           -0.3449447 Eh           -9.3864 eV

 SCC (total)                   0 d,  0 h,  0 min,  0.242 sec
 SCC setup                      ...        0 min,  0.002 sec (  0.935%)
 Dispersion                     ...        0 min,  0.004 sec (  1.693%)
 classical contributions        ...        0 min,  0.000 sec (  0.046%)
 integral evaluation            ...        0 min,  0.011 sec (  4.363%)
 iterations                     ...        0 min,  0.190 sec ( 78.331%)
 molecular gradient             ...        0 min,  0.034 sec ( 14.059%)
 printout                       ...        0 min,  0.001 sec (  0.551%)

         :::::::::::::::::::::::::::::::::::::::::::::::::::::
         ::                     SUMMARY                     ::
         :::::::::::::::::::::::::::::::::::::::::::::::::::::
         :: total energy            -230.451755207366 Eh    ::
         :: total w/o Gsasa/hb      -230.384555198508 Eh    ::
         :: gradient norm              0.126493979015 Eh/a0 ::
         :: HOMO-LUMO gap              1.228504828434 eV    ::
         ::.................................................::
         :: SCC energy              -232.946376360379 Eh    ::
         :: -> isotropic ES            0.524114912930 Eh    ::
         :: -> anisotropic ES         -0.026625447556 Eh    ::
         :: -> anisotropic XC          0.021428996556 Eh    ::
         :: -> dispersion             -0.194298104467 Eh    ::
         :: -> Gsolv                  -0.096835885908 Eh    ::
         ::    -> Gelec               -0.029635877050 Eh    ::
         ::    -> Gsasa               -0.030852898825 Eh    ::
         ::    -> Ghb                 -0.038686779408 Eh    ::
         ::    -> Gshift               0.002339669376 Eh    ::
         :: repulsion energy           2.494621153013 Eh    ::
         :: add. restraining           0.000000000000 Eh    ::
         :: total charge              -0.000000000000 e     ::
         :::::::::::::::::::::::::::::::::::::::::::::::::::::

           -------------------------------------------------
          |                Property Printout                |
           -------------------------------------------------

    * Orbital Energies and Occupations

         #    Occupation            Energy/Eh            Energy/eV
      -------------------------------------------------------------
         1        2.0000           -0.7970776             -21.6896
       ...           ...                  ...                  ...
       188        2.0000           -0.4252867             -11.5726
       189        2.0000           -0.4248889             -11.5618
       190        2.0000           -0.4228994             -11.5077
       191        2.0000           -0.4202732             -11.4362
       192        2.0000           -0.4155478             -11.3076
       193        2.0000           -0.4151419             -11.2966
       194        2.0000           -0.4147362             -11.2855
       195        2.0000           -0.4085156             -11.1163
       196        2.0000           -0.4037032             -10.9853
       197        2.0000           -0.3973518             -10.8125
       198        2.0000           -0.3927589             -10.6875
       199        2.0000           -0.3854047             -10.4874
       200        2.0000           -0.3675180             -10.0007 (HOMO)
       201                         -0.3223713              -8.7722 (LUMO)
       202                         -0.2920041              -7.9458
       203                         -0.2621524              -7.1335
       204                         -0.2392500              -6.5103
       205                         -0.2366920              -6.4407
       206                         -0.2335266              -6.3546
       207                         -0.2250848              -6.1249
       208                         -0.2240018              -6.0954
       209                         -0.1991977              -5.4204
       210                         -0.1687472              -4.5918
       211                         -0.1477062              -4.0193
       ...                                ...                  ...
       358                          0.6970276              18.9671
      -------------------------------------------------------------
                  HL-Gap            0.0451467 Eh            1.2285 eV
             Fermi-level           -0.3449447 Eh           -9.3864 eV

     #   Z          covCN         q      C6AA      α(0)
     1   6 C        2.840     0.143    24.881     8.174
     2   6 C        2.970    -0.047    29.166     8.859
     3   6 C        2.966    -0.003    28.106     8.696
     4   6 C        2.926    -0.099    30.481     9.054
     5   6 C        2.838     0.149    24.759     8.154
     6   6 C        2.921    -0.089    30.241     9.018
     7   6 C        3.743     0.093    19.106     6.236
     8   6 C        3.721     0.100    19.044     6.233
     9   6 C        3.752     0.102    18.959     6.209
    10   6 C        3.744     0.089    19.170     6.246
    11   6 C        3.737     0.090    19.164     6.247
    12   8 O        1.695    -0.341    19.735     5.998
    13   6 C        3.682     0.065    19.694     6.355
    14   8 O        1.654    -0.500    22.890     6.459
    15   8 O        1.651    -0.490    22.676     6.428
    16   8 O        1.697    -0.343    19.763     6.002
    17   8 O        1.701    -0.324    19.410     5.948
    18   6 C        3.674     0.066    19.688     6.358
    19   8 O        1.653    -0.468    22.214     6.362
    20   6 C        3.628     0.234    17.316     5.993
    21   8 O        1.697    -0.350    19.888     6.021
    22   6 C        3.734     0.092    19.147     6.245
    23   6 C        3.722     0.085    19.269     6.269
    24   6 C        3.721     0.089    19.210     6.260
    25   6 C        3.733     0.084    19.275     6.266
    26   8 O        1.652    -0.464    22.132     6.351
    27   8 O        1.697    -0.330    19.525     5.966
    28   8 O        1.653    -0.443    21.699     6.288
    29   6 C        3.722     0.062    19.637     6.328
    30   8 O        1.703    -0.256    18.237     5.766
    31   6 C        2.744     0.356    20.961     7.496
    32   8 O        0.857    -0.453    22.772     6.398
    33   6 C        2.727     0.350    21.052     7.512
    34   6 C        2.896    -0.109    30.758     9.093
    35   8 O        0.858    -0.481    23.377     6.482
    36   6 C        2.902     0.006    27.876     8.657
    37   6 C        2.898    -0.051    29.271     8.871
    38   6 C        2.895    -0.008    28.211     8.708
    39   6 C        3.806    -0.092    22.253     6.715
    40   6 C        3.728     0.110    18.868     6.201
    41   6 C        2.894    -0.074    29.835     8.956
    42   8 O        1.652    -0.498    22.851     6.453
    43   6 C        2.896    -0.038    28.949     8.822
    44   6 C        2.897    -0.053    29.304     8.876
    45   6 C        2.895    -0.047    29.159     8.853
    46   6 C        3.805    -0.065    21.748     6.639
    47   6 C        3.803    -0.063    21.700     6.632
    48   6 C        3.800    -0.065    21.746     6.639
    49   6 C        3.799    -0.053    21.528     6.606
    50   6 C        3.750    -0.112    22.711     6.796
    51   8 O        1.657    -0.430    21.444     6.251
    52   8 O        1.657    -0.434    21.529     6.264
    53   6 C        3.631     0.228    17.394     6.004
    54   6 C        3.723     0.090    19.193     6.256
    55   6 C        3.723     0.096    19.095     6.240
    56   6 C        3.720     0.079    19.380     6.288
    57   6 C        3.738     0.086    19.230     6.257
    58   8 O        1.696    -0.361    20.098     6.053
    59   6 C        3.675     0.063    19.742     6.367
    60   8 O        1.651    -0.459    22.032     6.336
    61   8 O        1.654    -0.474    22.349     6.382
    62   8 O        1.652    -0.487    22.614     6.420
    63   8 O        1.653    -0.467    22.195     6.360
    64   6 C        2.969    -0.031    28.775     8.799
    65   6 C        2.921    -0.032    28.787     8.799
    66   6 C        2.919    -0.035    28.862     8.810
    67   6 C        2.990     0.020    27.549     8.610
    68   6 C        2.989     0.015    27.659     8.627
    69   6 C        2.928    -0.039    28.982     8.829
    70   6 C        2.920    -0.036    28.906     8.817
    71   6 C        2.918    -0.027    28.682     8.782
    72   6 C        2.918    -0.031    28.767     8.795
    73   6 C        2.920    -0.039    28.973     8.827
    74   1 H        0.926     0.062     2.178     2.308
    75   1 H        0.926     0.082     1.956     2.187
    76   1 H        0.924     0.062     2.172     2.305
    77   1 H        0.924     0.040     2.450     2.448
    78   1 H        0.924     0.048     2.343     2.394
    79   1 H        0.924     0.076     2.019     2.222
    80   1 H        0.923     0.048     2.347     2.396
    81   1 H        0.924     0.039     2.459     2.452
    82   1 H        0.924     0.067     2.116     2.275
    83   1 H        0.804     0.348     0.593     1.209
    84   1 H        0.803     0.339     0.614     1.231
    85   1 H        0.924     0.085     1.925     2.170
    86   1 H        0.924     0.049     2.336     2.390
    87   1 H        0.802     0.336     0.622     1.239
    88   1 H        0.923     0.062     2.175     2.306
    89   1 H        0.923     0.049     2.326     2.385
    90   1 H        0.923     0.089     1.894     2.152
    91   1 H        0.923     0.045     2.378     2.412
    92   1 H        0.924     0.038     2.473     2.459
    93   1 H        0.802     0.336     0.623     1.240
    94   1 H        0.802     0.311     0.688     1.304
    95   1 H        0.924     0.098     1.800     2.098
    96   1 H        0.924     0.089     1.884     2.147
    97   1 H        0.926     0.098     1.799     2.097
    98   1 H        0.926     0.090     1.880     2.144
    99   1 H        0.926     0.083     1.950     2.184
   100   1 H        0.926     0.082     1.954     2.186
   101   1 H        0.924     0.087     1.904     2.158
   102   1 H        0.924     0.092     1.859     2.132
   103   1 H        0.923     0.051     2.310     2.377
   104   1 H        0.926     0.069     2.101     2.267
   105   1 H        0.804     0.336     0.623     1.240
   106   1 H        0.926     0.040     2.455     2.450
   107   1 H        0.926     0.035     2.514     2.480
   108   1 H        0.926     0.049     2.329     2.387
   109   1 H        0.924     0.053     2.286     2.364
   110   1 H        0.924     0.044     2.398     2.422
   111   1 H        0.924     0.020     2.739     2.588
   112   1 H        0.924     0.032     2.553     2.499
   113   1 H        0.924     0.037     2.483     2.464
   114   1 H        0.924     0.034     2.532     2.488
   115   1 H        0.924     0.024     2.669     2.555
   116   1 H        0.924     0.020     2.727     2.582
   117   1 H        0.924     0.038     2.480     2.463
   118   1 H        0.924     0.039     2.461     2.453
   119   1 H        0.924     0.042     2.425     2.435
   120   1 H        0.803     0.349     0.590     1.207
   121   1 H        0.804     0.360     0.565     1.181
   122   1 H        0.923     0.057     2.238     2.340
   123   1 H        0.924     0.013     2.838     2.634
   124   1 H        0.923     0.037     2.487     2.466
   125   1 H        0.923     0.079     1.987     2.204
   126   1 H        0.923     0.040     2.446     2.446
   127   1 H        0.924     0.078     2.000     2.212
   128   1 H        0.924     0.062     2.181     2.310
   129   1 H        0.802     0.326     0.648     1.265
   130   1 H        0.804     0.359     0.567     1.183
   131   1 H        0.802     0.335     0.626     1.243
   132   1 H        0.803     0.351     0.587     1.204
   133   1 H        0.926     0.062     2.176     2.307
   134   1 H        0.926     0.069     2.097     2.264
   135   1 H        0.926     0.065     2.140     2.288
   136   1 H        0.926     0.055     2.262     2.352
   137   1 H        0.926     0.057     2.240     2.340
   138   1 H        0.926     0.054     2.269     2.355
   139   1 H        0.926     0.044     2.398     2.422

 Mol. C6AA /au·bohr⁶  :     192875.529631
 Mol. C8AA /au·bohr⁸  :    4431759.759760
 Mol. α(0) /au        :        662.734711


Wiberg/Mayer (AO) data.
largest (>0.10) Wiberg bond orders for each atom

 ---------------------------------------------------------------------------
     #   Z sym  total        # sym  WBO       # sym  WBO       # sym  WBO
 ---------------------------------------------------------------------------
     1   6 C    3.944 --     6 C    1.385     2 C    1.332    51 O    1.084
     2   6 C    3.969 --     3 C    1.390     1 C    1.332     7 C    0.988
     3   6 C    3.986 --     4 C    1.426     2 C    1.390    13 C    0.998
     4   6 C    3.979 --     3 C    1.426     5 C    1.358    74 H    0.962
     5   6 C    3.944 --     6 C    1.383     4 C    1.358    52 O    1.076
     6   6 C    3.978 --     1 C    1.385     5 C    1.383    75 H    0.962
     7   6 C    3.929 --     2 C    0.988    12 O    0.947     8 C    0.947
                            76 H    0.946
     8   6 C    3.953 --    15 O    0.995     9 C    0.966    77 H    0.951
                             7 C    0.947
     9   6 C    3.922 --    10 C    0.969     8 C    0.966    78 H    0.950
                            17 O    0.926
    10   6 C    3.927 --     9 C    0.969    11 C    0.959    16 O    0.947
                            79 H    0.940
    11   6 C    3.946 --    18 C    0.975    12 O    0.969    10 C    0.959
                            80 H    0.956
    12   8 O    2.081 --    11 C    0.969     7 C    0.947
    13   6 C    3.950 --     3 C    0.998    14 O    0.987    81 H    0.969
                            82 H    0.950
    14   8 O    1.932 --    13 C    0.987    83 H    0.865
    15   8 O    1.931 --     8 C    0.995    84 H    0.831
    16   8 O    2.092 --    20 C    0.970    10 C    0.947
    17   8 O    2.256 --    33 C    1.051     9 C    0.926    35 O    0.132
    18   6 C    3.957 --    19 O    1.018    11 C    0.975    85 H    0.965
                            86 H    0.964
    19   8 O    1.942 --    18 C    1.018    87 H    0.851
    20   6 C    3.919 --    16 O    0.970    21 O    0.969    25 C    0.951
                            88 H    0.949
    21   8 O    2.072 --    20 C    0.969    22 C    0.943
    22   6 C    3.932 --    29 C    0.979    23 C    0.961    89 H    0.957
                            21 O    0.943
    23   6 C    3.959 --    28 O    1.009    24 C    0.961    22 C    0.961
                            90 H    0.955
    24   6 C    3.965 --    26 O    1.004    25 C    0.962    23 C    0.961
                            91 H    0.955
    25   6 C    3.942 --    24 C    0.962    27 O    0.957    20 C    0.951
                            92 H    0.945
    26   8 O    1.944 --    24 C    1.004    93 H    0.827
    27   8 O    2.102 --    53 C    0.985    25 C    0.957
    28   8 O    1.981 --    23 C    1.009    94 H    0.854
    29   6 C    3.928 --    22 C    0.979    30 O    0.967    95 H    0.961
                            96 H    0.957
    30   8 O    2.295 --    31 C    1.099    29 C    0.967    32 O    0.153
    31   6 C    3.899 --    32 O    1.686    30 O    1.099    64 C    1.018
    32   8 O    2.004 --    31 C    1.686    30 O    0.153
    33   6 C    3.888 --    35 O    1.594    34 C    1.110    17 O    1.051
    34   6 C    3.969 --    36 C    1.682    33 C    1.110    97 H    0.939
    35   8 O    1.996 --    33 C    1.594    17 O    0.132
    36   6 C    3.965 --    34 C    1.682    37 C    1.165    98 H    0.953
    37   6 C    3.983 --    38 C    1.755    36 C    1.165    99 H    0.957
    38   6 C    3.969 --    37 C    1.755    39 C    1.050   100 H    0.949
    39   6 C    3.989 --    38 C    1.050    40 C    0.984   101 H    0.946
                           102 H    0.933
    40   6 C    3.952 --    41 C    1.000    39 C    0.984    42 O    0.974
                           103 H    0.953
    41   6 C    3.985 --    43 C    1.851    40 C    1.000   104 H    0.950
                            45 C    0.115
    42   8 O    1.929 --    40 C    0.974   105 H    0.872
    43   6 C    3.991 --    41 C    1.851    44 C    1.109   106 H    0.964
    44   6 C    3.990 --    45 C    1.841    43 C    1.109   107 H    0.966
    45   6 C    3.989 --    44 C    1.841    46 C    1.030   108 H    0.955
                            41 C    0.115
    46   6 C    3.997 --    45 C    1.030    47 C    1.005   110 H    0.964
                           109 H    0.954
    47   6 C    3.995 --    48 C    1.008    46 C    1.005   111 H    0.975
                           112 H    0.968
    48   6 C    3.996 --    47 C    1.008    49 C    1.007   113 H    0.976
                           114 H    0.976
    49   6 C    3.997 --    50 C    1.021    48 C    1.007   115 H    0.977
                           116 H    0.977
    50   6 C    3.995 --    49 C    1.021   118 H    0.987   119 H    0.987
                           117 H    0.987
    51   8 O    2.098 --     1 C    1.084   120 H    0.827
    52   8 O    2.085 --     5 C    1.076   121 H    0.852
    53   6 C    3.918 --    27 O    0.985    58 O    0.953    54 C    0.949
                           122 H    0.943
    54   6 C    3.960 --    62 O    0.999    55 C    0.966    53 C    0.949
                           123 H    0.941
    55   6 C    3.965 --    61 O    1.006    56 C    0.967    54 C    0.966
                           124 H    0.958
    56   6 C    3.962 --    60 O    1.012    55 C    0.967    57 C    0.957
                           125 H    0.956
    57   6 C    3.926 --    59 C    0.979    56 C    0.957   126 H    0.956
                            58 O    0.933
    58   8 O    2.073 --    53 C    0.953    57 C    0.933
    59   6 C    3.954 --    63 O    1.011    57 C    0.979   128 H    0.964
                           127 H    0.959
    60   8 O    1.956 --    56 C    1.012   129 H    0.847
    61   8 O    1.933 --    55 C    1.006   130 H    0.853
    62   8 O    1.929 --    54 C    0.999   131 H    0.839
    63   8 O    1.947 --    59 C    1.011   132 H    0.862
    64   6 C    3.983 --    69 C    1.479    65 C    1.272    31 C    1.018
    65   6 C    3.988 --    66 C    1.570    64 C    1.272   133 H    0.965
    66   6 C    3.988 --    65 C    1.570    67 C    1.268   134 H    0.963
                            69 C    0.111
    67   6 C    3.990 --    70 C    1.280    66 C    1.268    68 C    1.250
    68   6 C    3.991 --    69 C    1.291    73 C    1.269    67 C    1.250
    69   6 C    3.987 --    64 C    1.479    68 C    1.291   135 H    0.957
                            66 C    0.111
    70   6 C    3.989 --    71 C    1.557    67 C    1.280   136 H    0.967
                            73 C    0.118
    71   6 C    3.982 --    70 C    1.557    72 C    1.318   137 H    0.968
    72   6 C    3.991 --    73 C    1.563    71 C    1.318   138 H    0.969
    73   6 C    3.987 --    72 C    1.563    68 C    1.269   139 H    0.967
                            70 C    0.118
    74   1 H    0.996 --     4 C    0.962
    75   1 H    0.993 --     6 C    0.962
    76   1 H    0.995 --     7 C    0.946
    77   1 H    0.998 --     8 C    0.951
    78   1 H    0.997 --     9 C    0.950
    79   1 H    0.994 --    10 C    0.940
    80   1 H    0.997 --    11 C    0.956
    81   1 H    0.998 --    13 C    0.969
    82   1 H    0.995 --    13 C    0.950
    83   1 H    0.879 --    14 O    0.865
    84   1 H    0.885 --    15 O    0.831
    85   1 H    0.992 --    18 C    0.965
    86   1 H    0.997 --    18 C    0.964
    87   1 H    0.887 --    19 O    0.851
    88   1 H    0.995 --    20 C    0.949
    89   1 H    0.997 --    22 C    0.957
    90   1 H    0.992 --    23 C    0.955
    91   1 H    0.998 --    24 C    0.955
    92   1 H    0.998 --    25 C    0.945
    93   1 H    0.887 --    26 O    0.827
    94   1 H    0.903 --    28 O    0.854
    95   1 H    0.989 --    29 C    0.961
    96   1 H    0.991 --    29 C    0.957
    97   1 H    0.990 --    34 C    0.939
    98   1 H    0.992 --    36 C    0.953
    99   1 H    0.992 --    37 C    0.957
   100   1 H    0.993 --    38 C    0.949
   101   1 H    0.989 --    39 C    0.946
   102   1 H    0.987 --    39 C    0.933
   103   1 H    0.997 --    40 C    0.953
   104   1 H    0.995 --    41 C    0.950
   105   1 H    0.887 --    42 O    0.872
   106   1 H    0.998 --    43 C    0.964
   107   1 H    0.998 --    44 C    0.966
   108   1 H    0.998 --    45 C    0.955
   109   1 H    0.997 --    46 C    0.954
   110   1 H    0.998 --    46 C    0.964
   111   1 H    1.000 --    47 C    0.975
   112   1 H    0.999 --    47 C    0.968
   113   1 H    0.998 --    48 C    0.976
   114   1 H    0.999 --    48 C    0.976
   115   1 H    0.999 --    49 C    0.977
   116   1 H    1.000 --    49 C    0.977
   117   1 H    0.998 --    50 C    0.987
   118   1 H    0.998 --    50 C    0.987
   119   1 H    0.998 --    50 C    0.987
   120   1 H    0.878 --    51 O    0.827
   121   1 H    0.870 --    52 O    0.852
   122   1 H    0.996 --    53 C    0.943
   123   1 H    1.000 --    54 C    0.941
   124   1 H    0.998 --    55 C    0.958
   125   1 H    0.993 --    56 C    0.956
   126   1 H    0.998 --    57 C    0.956
   127   1 H    0.994 --    59 C    0.959
   128   1 H    0.995 --    59 C    0.964
   129   1 H    0.894 --    60 O    0.847
   130   1 H    0.871 --    61 O    0.853
   131   1 H    0.888 --    62 O    0.839
   132   1 H    0.877 --    63 O    0.862
   133   1 H    0.996 --    65 C    0.965
   134   1 H    0.994 --    66 C    0.963
   135   1 H    0.995 --    69 C    0.957
   136   1 H    0.997 --    70 C    0.967
   137   1 H    0.996 --    71 C    0.968
   138   1 H    0.997 --    72 C    0.969
   139   1 H    0.998 --    73 C    0.967
 ---------------------------------------------------------------------------

Topologies differ in total number of bonds
Writing topology from bond orders to xtbtopo.mol

molecular dipole:
                 x           y           z       tot (Debye)
 q only:        2.313       1.146      -2.145
   full:        2.900       0.094      -2.239       9.316
molecular quadrupole (traceless):
                xx          xy          yy          xz          yz          zz
 q only:       25.790     -14.624     -11.874      20.141     -11.997     -13.916
  q+dip:       17.447     -25.147     -15.907      26.962     -11.884      -1.540
   full:       16.449     -25.531     -11.773      25.138      -8.913      -4.676


           -------------------------------------------------
          | TOTAL ENERGY             -230.451755207366 Eh   |
          | GRADIENT NORM               0.126493979015 Eh/α |
          | HOMO-LUMO GAP               1.228504828434 eV   |
           -------------------------------------------------

------------------------------------------------------------------------
 * finished run on 2026/06/19 at 18:52:25.825     
------------------------------------------------------------------------
 total:
 * wall-time:     0 d,  0 h,  0 min,  0.289 sec
 *  cpu-time:     0 d,  0 h,  0 min,  4.442 sec
 * ratio c/w:    15.371 speedup
 SCF:
 * wall-time:     0 d,  0 h,  0 min,  0.243 sec
 *  cpu-time:     0 d,  0 h,  0 min,  3.846 sec
 * ratio c/w:    15.815 speedup

normal termination of xtb
