      -----------------------------------------------------------      
     |                   =====================                   |     
     |                           x T B                           |     
     |                   =====================                   |     
     |                         S. Grimme                         |     
     |          Mulliken Center for Theoretical Chemistry        |     
     |                    University of Bonn                     |     
      -----------------------------------------------------------      

   * xtb version 6.7.1 (edcfbbe) compiled by 'albert@albert-system' on 2024-07-22

   xtb is free software: you can redistribute it and/or modify it under
   the terms of the GNU Lesser General Public License as published by
   the Free Software Foundation, either version 3 of the License, or
   (at your option) any later version.
   
   xtb is distributed in the hope that it will be useful,
   but WITHOUT ANY WARRANTY; without even the implied warranty of
   MERCHANTABILITY or FITNESS FOR A PARTICULAR PURPOSE.  See the
   GNU Lesser General Public License for more details.
   
   Cite this work as:
   * C. Bannwarth, E. Caldeweyher, S. Ehlert, A. Hansen, P. Pracht,
     J. Seibert, S. Spicher, S. Grimme, WIREs Comput. Mol. Sci., 2020, 11,
     e01493. DOI: 10.1002/wcms.1493
   
   for GFN2-xTB:
   * C. Bannwarth, S. Ehlert and S. Grimme., J. Chem. Theory Comput., 2019,
     15, 1652-1671. DOI: 10.1021/acs.jctc.8b01176
   for GFN1-xTB:
   * S. Grimme, C. Bannwarth, P. Shushkov, J. Chem. Theory Comput., 2017,
     13, 1989-2009. DOI: 10.1021/acs.jctc.7b00118
   for GFN0-xTB:
   * P. Pracht, E. Caldeweyher, S. Ehlert, S. Grimme, ChemRxiv, 2019, preprint.
     DOI: 10.26434/chemrxiv.8326202.v1
   for GFN-FF:
   * S. Spicher and S. Grimme, Angew. Chem. Int. Ed., 2020, 59, 15665-15673.
     DOI: 10.1002/anie.202004239
   
   for ALPB and GBSA implicit solvation:
   * S. Ehlert, M. Stahn, S. Spicher, S. Grimme, J. Chem. Theory Comput.,
     2021, 17, 4250-4261. DOI: 10.1021/acs.jctc.1c00471
   
   for ddCOSMO and CPCM-X implicit solvation:
   * M. Stahn, S. Ehlert, S. Grimme, J. Phys. Chem. A,
     2023, XX, XXXX-XXXX. DOI: 10.1021/acs.jpca.3c04382
   
   for DFT-D4:
   * E. Caldeweyher, C. Bannwarth and S. Grimme, J. Chem. Phys., 2017,
     147, 034112. DOI: 10.1063/1.4993215
   * E. Caldeweyher, S. Ehlert, A. Hansen, H. Neugebauer, S. Spicher,
     C. Bannwarth and S. Grimme, J. Chem. Phys., 2019, 150, 154122.
     DOI: 10.1063/1.5090222
   * E. Caldeweyher, J.-M. Mewes, S. Ehlert and S. Grimme, Phys. Chem. Chem. Phys.
     2020, 22, 8499-8512. DOI: 10.1039/D0CP00502A
   
   for sTDA-xTB:
   * S. Grimme and C. Bannwarth, J. Chem. Phys., 2016, 145, 054103.
     DOI: 10.1063/1.4959605
   
   in the mass-spec context:
   * V. Asgeirsson, C. Bauer and S. Grimme, Chem. Sci., 2017, 8, 4879.
     DOI: 10.1039/c7sc00601b
   * J. Koopman and S. Grimme, ACS Omega 2019, 4, 12, 15120-15133.
     DOI: 10.1021/acsomega.9b02011
   
   for metadynamics refer to:
   * S. Grimme, J. Chem. Theory Comput., 2019, 155, 2847-2862
     DOI: 10.1021/acs.jctc.9b00143
   
   for SPH calculations refer to:
   * S. Spicher and S. Grimme, J. Chem. Theory Comput., 2021, 17, 1701-1714
     DOI: 10.1021/acs.jctc.0c01306
   
   for ONIOM refer to:
   * C. Plett, A. Katbashev, S. Ehlert, S. Grimme, M. Bursch,
     Phys. Chem. Chem. Phys., 2023, 25, 17860-17868. DOI: 10.1039/D3CP02178E
   
   for DIPRO refer to:
   * J. Kohn, N. Gildemeister, S. Grimme, D. Fazzi, A. Hansen,
     J. Chem. Phys., 2023, just accepted.
   
   for PTB refer to:
   * S. Grimme, M. Mueller, A. Hansen, J. Chem. Phys., 2023, 158, 124111.
     DOI: 10.1063/5.0137838
   
   with help from (in alphabetical order)
   P. Atkinson, C. Bannwarth, F. Bohle, G. Brandenburg, E. Caldeweyher
   M. Checinski, S. Dohm, S. Ehlert, S. Ehrlich, I. Gerasimov, C. Hölzer
   A. Katbashev, J. Kohn, J. Koopman, C. Lavigne, S. Lehtola, F. März, M. Müller,
   F. Musil, H. Neugebauer, J. Pisarek, C. Plett, P. Pracht, F. Pultar,
   J. Seibert, P. Shushkov, S. Spicher, M. Stahn, M. Steiner, T. Strunk,
   J. Stückrath, T. Rose, and J. Unsleber
   
 * started run on 2026/06/19 at 18:52:26.149     
   ID    Z sym.   atoms
    1    6 C      1-11, 13, 18, 20, 22-25, 29, 31, 33, 34, 36-41, 43-50,
                  53-57, 59, 64-73
    2    8 O      12, 14-17, 19, 21, 26-28, 30, 32, 35, 42, 51, 52, 58, 60-63
    3    1 H      74-139

           -------------------------------------------------
          |                Calculation Setup                |
           -------------------------------------------------

          program call               : xtb PAPU-0076/conf02.xyz --gfn 2 --alpb octanol --chrg 0 --uhf 0 --namespace PAPU-0076/conf02_octanol
          hostname                   : cpu10
          calculation namespace      : PAPU-0076/conf02_octanol
          coordinate file            : PAPU-0076/conf02.xyz
          omp threads                :                    16


           -------------------------------------------------
          |                 G F N 2 - x T B                 |
           -------------------------------------------------

        Reference                      10.1021/acs.jctc.8b01176
      * Hamiltonian:
        H0-scaling (s, p, d)           1.850000    2.230000    2.230000
        zeta-weighting                 0.500000
      * Dispersion:
        s8                             2.700000
        a1                             0.520000
        a2                             5.000000
        s9                             5.000000
      * Repulsion:
        kExp                           1.500000    1.000000
        rExp                           1.000000
      * Coulomb:
        alpha                          2.000000
        third order                    shell-resolved
        anisotropic                    true
        a3                             3.000000
        a5                             4.000000
        cn-shift                       1.200000
        cn-exp                         4.000000
        max-rad                        5.000000

      * Solvation model:               ALPB
        Solvent                        octanol
        Parameter file                 internal GFN2-xTB/ALPB
        Dielectric constant                9.8629E+00
        Reference state                gsolv [1 M gas/solution]
        Free energy shift                  2.3397E-03 Eh       1.4682E+00 kcal/mol
        Temperature                        2.9815E+02 K
        Density                            8.3000E-01 kg/L
        Solvent mass                       1.3023E+02 g/mol
        Interaction kernel             P16
        Born radius scaling (c1)           1.5898E+00
        Born radii integrator          GBOBC
        Born offset                        0.0000E+00 a0       0.0000E+00 AA
        H-bond correction              true
        Ion screening                  false
        Surface tension                    1.0000E-05 Eh       1.5569E+01 dyn/cm
        Grid points                               230 per atom

          ...................................................
          :                      SETUP                      :
          :.................................................:
          :  # basis functions                 358          :
          :  # atomic orbitals                 358          :
          :  # shells                          212          :
          :  # electrons                       400          :
          :  max. iterations                   250          :
          :  Hamiltonian                  GFN2-xTB          :
          :  restarted?                      false          :
          :  GBSA solvation                   true          :
          :  PC potential                    false          :
          :  electronic temp.          300.0000000     K    :
          :  accuracy                    1.0000000          :
          :  -> integral cutoff          0.2500000E+02      :
          :  -> integral neglect         0.1000000E-07      :
          :  -> SCF convergence          0.1000000E-05 Eh   :
          :  -> wf. convergence          0.1000000E-03 e    :
          :  Broyden damping             0.4000000          :
          :  net charge                          0          :
          :  unpaired electrons                  0          :
          ...................................................

 iter      E             dE          RMSdq      gap      omega  full diag
   1   -232.6782372 -0.232678E+03  0.445E+00    2.44       0.0  T
   2   -232.9230505 -0.244813E+00  0.246E+00    1.39       1.0  T
   3   -232.9055796  0.174709E-01  0.106E+00    1.35       1.0  T
   4   -232.9454232 -0.398436E-01  0.328E-01    1.07       1.0  T
   5   -232.9520921 -0.666888E-02  0.134E-01    1.06       1.0  T
   6   -232.9529015 -0.809493E-03  0.660E-02    1.10       1.0  T
   7   -232.9530336 -0.132070E-03  0.307E-02    1.11       1.0  T
   8   -232.9530681 -0.344949E-04  0.135E-02    1.11       1.0  T
   9   -232.9530762 -0.812250E-05  0.571E-03    1.11       1.5  T
  10   -232.9530779 -0.164977E-05  0.306E-03    1.11       2.8  T
  11   -232.9530782 -0.304271E-06  0.146E-03    1.11       5.8  T
  12   -232.9530782 -0.497346E-07  0.581E-04    1.11      14.6  T
  13   -232.9530783 -0.145967E-07  0.272E-04    1.11      31.2  T

   *** convergence criteria satisfied after 13 iterations ***

         #    Occupation            Energy/Eh            Energy/eV
      -------------------------------------------------------------
         1        2.0000           -0.8024443             -21.8356
       ...           ...                  ...                  ...
       194        2.0000           -0.4153606             -11.3025
       195        2.0000           -0.4138228             -11.2607
       196        2.0000           -0.4051950             -11.0259
       197        2.0000           -0.3957735             -10.7695
       198        2.0000           -0.3888209             -10.5804
       199        2.0000           -0.3833453             -10.4314
       200        2.0000           -0.3704874             -10.0815 (HOMO)
       201                         -0.3297289              -8.9724 (LUMO)
       202                         -0.2917959              -7.9402
       203                         -0.2611262              -7.1056
       204                         -0.2462319              -6.7003
       205                         -0.2399565              -6.5295
       ...                                ...                  ...
       358                          0.6969413              18.9647
      -------------------------------------------------------------
                  HL-Gap            0.0407585 Eh            1.1091 eV
             Fermi-level           -0.3501081 Eh           -9.5269 eV

 SCC (total)                   0 d,  0 h,  0 min,  0.249 sec
 SCC setup                      ...        0 min,  0.003 sec (  1.380%)
 Dispersion                     ...        0 min,  0.004 sec (  1.423%)
 classical contributions        ...        0 min,  0.000 sec (  0.070%)
 integral evaluation            ...        0 min,  0.014 sec (  5.586%)
 iterations                     ...        0 min,  0.191 sec ( 76.893%)
 molecular gradient             ...        0 min,  0.034 sec ( 13.674%)
 printout                       ...        0 min,  0.002 sec (  0.958%)

         :::::::::::::::::::::::::::::::::::::::::::::::::::::
         ::                     SUMMARY                     ::
         :::::::::::::::::::::::::::::::::::::::::::::::::::::
         :: total energy            -230.445537936989 Eh    ::
         :: total w/o Gsasa/hb      -230.380900540317 Eh    ::
         :: gradient norm              0.133242789377 Eh/a0 ::
         :: HOMO-LUMO gap              1.109094585136 eV    ::
         ::.................................................::
         :: SCC energy              -232.937253459188 Eh    ::
         :: -> isotropic ES            0.524357652576 Eh    ::
         :: -> anisotropic ES         -0.023776232347 Eh    ::
         :: -> anisotropic XC          0.021518332651 Eh    ::
         :: -> dispersion             -0.194340641945 Eh    ::
         :: -> Gsolv                  -0.094483896091 Eh    ::
         ::    -> Gelec               -0.029846499419 Eh    ::
         ::    -> Gsasa               -0.030629459073 Eh    ::
         ::    -> Ghb                 -0.036347606974 Eh    ::
         ::    -> Gshift               0.002339669376 Eh    ::
         :: repulsion energy           2.491715522199 Eh    ::
         :: add. restraining           0.000000000000 Eh    ::
         :: total charge               0.000000000000 e     ::
         :::::::::::::::::::::::::::::::::::::::::::::::::::::

           -------------------------------------------------
          |                Property Printout                |
           -------------------------------------------------

    * Orbital Energies and Occupations

         #    Occupation            Energy/Eh            Energy/eV
      -------------------------------------------------------------
         1        2.0000           -0.8024443             -21.8356
       ...           ...                  ...                  ...
       188        2.0000           -0.4238869             -11.5345
       189        2.0000           -0.4232093             -11.5161
       190        2.0000           -0.4215894             -11.4720
       191        2.0000           -0.4208463             -11.4518
       192        2.0000           -0.4175851             -11.3631
       193        2.0000           -0.4155833             -11.3086
       194        2.0000           -0.4153606             -11.3025
       195        2.0000           -0.4138228             -11.2607
       196        2.0000           -0.4051950             -11.0259
       197        2.0000           -0.3957735             -10.7695
       198        2.0000           -0.3888209             -10.5804
       199        2.0000           -0.3833453             -10.4314
       200        2.0000           -0.3704874             -10.0815 (HOMO)
       201                         -0.3297289              -8.9724 (LUMO)
       202                         -0.2917959              -7.9402
       203                         -0.2611262              -7.1056
       204                         -0.2462319              -6.7003
       205                         -0.2399565              -6.5295
       206                         -0.2309199              -6.2836
       207                         -0.2244966              -6.1089
       208                         -0.2220391              -6.0420
       209                         -0.1976709              -5.3789
       210                         -0.1735059              -4.7213
       211                         -0.1479866              -4.0269
       ...                                ...                  ...
       358                          0.6969413              18.9647
      -------------------------------------------------------------
                  HL-Gap            0.0407585 Eh            1.1091 eV
             Fermi-level           -0.3501081 Eh           -9.5269 eV

     #   Z          covCN         q      C6AA      α(0)
     1   6 C        2.840     0.142    24.902     8.178
     2   6 C        2.969    -0.044    29.087     8.846
     3   6 C        2.966     0.009    27.824     8.652
     4   6 C        2.927    -0.098    30.459     9.051
     5   6 C        2.837     0.148    24.781     8.158
     6   6 C        2.922    -0.088    30.203     9.012
     7   6 C        3.742     0.093    19.111     6.237
     8   6 C        3.720     0.100    19.043     6.233
     9   6 C        3.746     0.101    18.976     6.214
    10   6 C        3.743     0.088    19.197     6.251
    11   6 C        3.737     0.090    19.164     6.247
    12   8 O        1.695    -0.341    19.728     5.997
    13   6 C        3.681     0.071    19.587     6.338
    14   8 O        1.653    -0.506    23.022     6.477
    15   8 O        1.651    -0.488    22.647     6.424
    16   8 O        1.696    -0.342    19.747     6.000
    17   8 O        1.701    -0.322    19.390     5.945
    18   6 C        3.675     0.066    19.689     6.358
    19   8 O        1.653    -0.467    22.205     6.361
    20   6 C        3.627     0.234    17.335     5.998
    21   8 O        1.697    -0.349    19.871     6.018
    22   6 C        3.734     0.091    19.154     6.246
    23   6 C        3.722     0.086    19.261     6.268
    24   6 C        3.722     0.089    19.206     6.259
    25   6 C        3.732     0.083    19.281     6.268
    26   8 O        1.652    -0.466    22.178     6.357
    27   8 O        1.697    -0.327    19.474     5.958
    28   8 O        1.653    -0.441    21.663     6.283
    29   6 C        3.718     0.062    19.655     6.333
    30   8 O        1.703    -0.254    18.210     5.761
    31   6 C        2.738     0.356    20.963     7.496
    32   8 O        0.857    -0.455    22.813     6.404
    33   6 C        2.721     0.350    21.054     7.511
    34   6 C        2.896    -0.113    30.866     9.109
    35   8 O        0.858    -0.500    23.785     6.539
    36   6 C        2.901     0.009    27.808     8.646
    37   6 C        2.898    -0.049    29.222     8.863
    38   6 C        2.895    -0.007    28.200     8.707
    39   6 C        3.806    -0.093    22.261     6.717
    40   6 C        3.728     0.109    18.883     6.204
    41   6 C        2.897    -0.073    29.822     8.954
    42   8 O        1.652    -0.498    22.857     6.454
    43   6 C        2.896    -0.032    28.806     8.800
    44   6 C        2.901    -0.050    29.236     8.866
    45   6 C        2.895    -0.045    29.121     8.848
    46   6 C        3.806    -0.063    21.703     6.632
    47   6 C        3.802    -0.056    21.587     6.615
    48   6 C        3.800    -0.063    21.718     6.635
    49   6 C        3.799    -0.057    21.599     6.617
    50   6 C        3.750    -0.113    22.716     6.797
    51   8 O        1.657    -0.432    21.474     6.256
    52   8 O        1.657    -0.433    21.492     6.258
    53   6 C        3.629     0.227    17.422     6.011
    54   6 C        3.722     0.096    19.107     6.242
    55   6 C        3.721     0.085    19.269     6.269
    56   6 C        3.720     0.070    19.523     6.311
    57   6 C        3.740     0.086    19.224     6.256
    58   8 O        1.696    -0.358    20.033     6.043
    59   6 C        3.675     0.065    19.708     6.361
    60   8 O        1.651    -0.463    22.109     6.347
    61   8 O        1.652    -0.460    22.058     6.340
    62   8 O        1.652    -0.485    22.568     6.413
    63   8 O        1.654    -0.464    22.139     6.352
    64   6 C        2.969    -0.032    28.785     8.800
    65   6 C        2.923    -0.043    29.077     8.843
    66   6 C        2.918    -0.040    28.988     8.829
    67   6 C        2.991     0.020    27.560     8.612
    68   6 C        2.989     0.017    27.613     8.620
    69   6 C        2.925    -0.028    28.707     8.786
    70   6 C        2.920    -0.040    28.989     8.829
    71   6 C        2.918    -0.029    28.713     8.787
    72   6 C        2.918    -0.031    28.765     8.795
    73   6 C        2.921    -0.034    28.837     8.806
    74   1 H        0.926     0.062     2.179     2.308
    75   1 H        0.926     0.083     1.946     2.182
    76   1 H        0.924     0.069     2.099     2.266
    77   1 H        0.924     0.038     2.477     2.461
    78   1 H        0.924     0.047     2.354     2.399
    79   1 H        0.924     0.082     1.956     2.187
    80   1 H        0.923     0.048     2.343     2.394
    81   1 H        0.924     0.039     2.458     2.452
    82   1 H        0.924     0.048     2.347     2.396
    83   1 H        0.804     0.351     0.587     1.204
    84   1 H        0.802     0.338     0.618     1.235
    85   1 H        0.924     0.085     1.932     2.174
    86   1 H        0.924     0.049     2.328     2.386
    87   1 H        0.802     0.336     0.623     1.240
    88   1 H        0.923     0.064     2.155     2.296
    89   1 H        0.923     0.050     2.314     2.379
    90   1 H        0.923     0.090     1.883     2.146
    91   1 H        0.923     0.046     2.366     2.405
    92   1 H        0.924     0.036     2.502     2.474
    93   1 H        0.802     0.337     0.620     1.237
    94   1 H        0.802     0.310     0.692     1.307
    95   1 H        0.924     0.100     1.789     2.092
    96   1 H        0.924     0.090     1.884     2.146
    97   1 H        0.926     0.101     1.777     2.085
    98   1 H        0.926     0.090     1.876     2.142
    99   1 H        0.926     0.086     1.919     2.166
   100   1 H        0.926     0.080     1.975     2.198
   101   1 H        0.924     0.095     1.834     2.118
   102   1 H        0.924     0.088     1.903     2.157
   103   1 H        0.923     0.050     2.323     2.384
   104   1 H        0.926     0.066     2.135     2.285
   105   1 H        0.804     0.336     0.621     1.238
   106   1 H        0.926     0.037     2.483     2.464
   107   1 H        0.926     0.054     2.267     2.355
   108   1 H        0.926     0.034     2.534     2.489
   109   1 H        0.924     0.042     2.425     2.435
   110   1 H        0.924     0.039     2.462     2.454
   111   1 H        0.924     0.032     2.562     2.503
   112   1 H        0.924     0.019     2.744     2.591
   113   1 H        0.924     0.033     2.545     2.495
   114   1 H        0.924     0.038     2.471     2.458
   115   1 H        0.924     0.023     2.681     2.561
   116   1 H        0.924     0.027     2.625     2.534
   117   1 H        0.924     0.037     2.490     2.468
   118   1 H        0.924     0.042     2.416     2.431
   119   1 H        0.924     0.038     2.475     2.460
   120   1 H        0.803     0.349     0.590     1.206
   121   1 H        0.804     0.360     0.565     1.181
   122   1 H        0.923     0.060     2.198     2.318
   123   1 H        0.924    -0.001     3.067     2.739
   124   1 H        0.923     0.075     2.037     2.232
   125   1 H        0.923     0.076     2.021     2.223
   126   1 H        0.923     0.043     2.409     2.427
   127   1 H        0.924     0.081     1.973     2.196
   128   1 H        0.924     0.061     2.187     2.313
   129   1 H        0.802     0.315     0.679     1.295
   130   1 H        0.802     0.332     0.632     1.248
   131   1 H        0.802     0.336     0.622     1.239
   132   1 H        0.803     0.348     0.593     1.210
   133   1 H        0.926     0.062     2.181     2.309
   134   1 H        0.926     0.055     2.257     2.349
   135   1 H        0.926     0.066     2.132     2.283
   136   1 H        0.926     0.052     2.292     2.367
   137   1 H        0.926     0.055     2.252     2.347
   138   1 H        0.926     0.058     2.223     2.331
   139   1 H        0.926     0.060     2.202     2.321

 Mol. C6AA /au·bohr⁶  :     192843.412850
 Mol. C8AA /au·bohr⁸  :    4430915.262580
 Mol. α(0) /au        :        662.679050


Wiberg/Mayer (AO) data.
largest (>0.10) Wiberg bond orders for each atom

 ---------------------------------------------------------------------------
     #   Z sym  total        # sym  WBO       # sym  WBO       # sym  WBO
 ---------------------------------------------------------------------------
     1   6 C    3.945 --     6 C    1.384     2 C    1.334    51 O    1.083
     2   6 C    3.970 --     3 C    1.391     1 C    1.334     7 C    0.988
     3   6 C    3.987 --     4 C    1.425     2 C    1.391    13 C    1.004
     4   6 C    3.979 --     3 C    1.425     5 C    1.360    74 H    0.962
     5   6 C    3.945 --     6 C    1.383     4 C    1.360    52 O    1.075
     6   6 C    3.978 --     1 C    1.384     5 C    1.383    75 H    0.961
     7   6 C    3.927 --     2 C    0.988     8 C    0.947    12 O    0.947
                            76 H    0.943
     8   6 C    3.952 --    15 O    0.994     9 C    0.965    77 H    0.952
                             7 C    0.947
     9   6 C    3.921 --    10 C    0.969     8 C    0.965    78 H    0.952
                            17 O    0.925
    10   6 C    3.925 --     9 C    0.969    11 C    0.959    16 O    0.947
                            79 H    0.936
    11   6 C    3.946 --    18 C    0.976    12 O    0.969    10 C    0.959
                            80 H    0.956
    12   8 O    2.083 --    11 C    0.969     7 C    0.947
    13   6 C    3.953 --     3 C    1.004    14 O    0.982    81 H    0.970
                            82 H    0.950
    14   8 O    1.918 --    13 C    0.982    83 H    0.862
    15   8 O    1.930 --     8 C    0.994    84 H    0.834
    16   8 O    2.097 --    20 C    0.969    10 C    0.947
    17   8 O    2.260 --    33 C    1.059     9 C    0.925    35 O    0.131
    18   6 C    3.957 --    19 O    1.017    11 C    0.976    85 H    0.966
                            86 H    0.963
    19   8 O    1.941 --    18 C    1.017    87 H    0.852
    20   6 C    3.918 --    21 O    0.969    16 O    0.969    25 C    0.952
                            88 H    0.949
    21   8 O    2.075 --    20 C    0.969    22 C    0.943
    22   6 C    3.932 --    29 C    0.979    23 C    0.962    89 H    0.957
                            21 O    0.943
    23   6 C    3.959 --    28 O    1.008    22 C    0.962    24 C    0.961
                            90 H    0.955
    24   6 C    3.964 --    26 O    1.004    25 C    0.962    23 C    0.961
                            91 H    0.953
    25   6 C    3.943 --    24 C    0.962    27 O    0.957    20 C    0.952
                            92 H    0.943
    26   8 O    1.942 --    24 C    1.004    93 H    0.831
    27   8 O    2.103 --    53 C    0.985    25 C    0.957
    28   8 O    1.983 --    23 C    1.008    94 H    0.855
    29   6 C    3.928 --    22 C    0.979    30 O    0.967    95 H    0.961
                            96 H    0.958
    30   8 O    2.297 --    31 C    1.101    29 C    0.967    32 O    0.154
    31   6 C    3.899 --    32 O    1.686    30 O    1.101    64 C    1.015
    32   8 O    2.006 --    31 C    1.686    30 O    0.154
    33   6 C    3.887 --    35 O    1.568    34 C    1.117    17 O    1.059
    34   6 C    3.968 --    36 C    1.672    33 C    1.117    97 H    0.935
    35   8 O    1.976 --    33 C    1.568    17 O    0.131
    36   6 C    3.964 --    34 C    1.672    37 C    1.169    98 H    0.954
    37   6 C    3.983 --    38 C    1.752    36 C    1.169    99 H    0.958
    38   6 C    3.969 --    37 C    1.752    39 C    1.051   100 H    0.949
    39   6 C    3.988 --    38 C    1.051    40 C    0.983   102 H    0.939
                           101 H    0.937
    40   6 C    3.951 --    41 C    1.000    39 C    0.983    42 O    0.973
                           103 H    0.957
    41   6 C    3.976 --    43 C    1.838    40 C    1.000   104 H    0.955
                            45 C    0.130
    42   8 O    1.925 --    40 C    0.973   105 H    0.871
    43   6 C    3.990 --    41 C    1.838    44 C    1.122   106 H    0.963
    44   6 C    3.988 --    45 C    1.833    43 C    1.122   107 H    0.956
    45   6 C    3.982 --    44 C    1.833    46 C    1.027   108 H    0.967
                            41 C    0.130
    46   6 C    3.995 --    45 C    1.027    47 C    0.985   110 H    0.974
                           109 H    0.969
    47   6 C    3.988 --    48 C    1.006    46 C    0.985   112 H    0.975
                           111 H    0.971
    48   6 C    3.995 --    49 C    1.006    47 C    1.006   113 H    0.977
                           114 H    0.976
    49   6 C    3.995 --    50 C    1.021    48 C    1.006   115 H    0.977
                           116 H    0.972
    50   6 C    3.995 --    49 C    1.021   119 H    0.987   118 H    0.987
                           117 H    0.987
    51   8 O    2.093 --     1 C    1.083   120 H    0.826
    52   8 O    2.084 --     5 C    1.075   121 H    0.852
    53   6 C    3.919 --    27 O    0.985    58 O    0.954    54 C    0.949
                           122 H    0.945
    54   6 C    3.963 --    62 O    1.002    55 C    0.967    53 C    0.949
                           123 H    0.936
    55   6 C    3.959 --    61 O    1.008    54 C    0.967    56 C    0.960
                           124 H    0.959
    56   6 C    3.958 --    60 O    1.003    57 C    0.960    55 C    0.960
                           125 H    0.956
    57   6 C    3.927 --    59 C    0.978    56 C    0.960   126 H    0.956
                            58 O    0.935
    58   8 O    2.073 --    53 C    0.954    57 C    0.935
    59   6 C    3.954 --    63 O    1.012    57 C    0.978   128 H    0.964
                           127 H    0.962
    60   8 O    1.952 --    56 C    1.003   129 H    0.850
    61   8 O    1.957 --    55 C    1.008   130 H    0.851
    62   8 O    1.929 --    54 C    1.002   131 H    0.834
    63   8 O    1.951 --    59 C    1.012   132 H    0.862
    64   6 C    3.983 --    69 C    1.484    65 C    1.267    31 C    1.015
    65   6 C    3.989 --    66 C    1.575    64 C    1.267   133 H    0.958
    66   6 C    3.990 --    65 C    1.575    67 C    1.269   134 H    0.966
                            69 C    0.109
    67   6 C    3.990 --    70 C    1.281    66 C    1.269    68 C    1.250
    68   6 C    3.990 --    69 C    1.290    73 C    1.270    67 C    1.250
    69   6 C    3.985 --    64 C    1.484    68 C    1.290   135 H    0.963
                            66 C    0.109
    70   6 C    3.989 --    71 C    1.555    67 C    1.281   136 H    0.967
                            73 C    0.118
    71   6 C    3.982 --    70 C    1.555    72 C    1.320   137 H    0.969
    72   6 C    3.990 --    73 C    1.560    71 C    1.320   138 H    0.968
    73   6 C    3.988 --    72 C    1.560    68 C    1.270   139 H    0.965
                            70 C    0.118
    74   1 H    0.996 --     4 C    0.962
    75   1 H    0.992 --     6 C    0.961
    76   1 H    0.995 --     7 C    0.943
    77   1 H    0.998 --     8 C    0.952
    78   1 H    0.997 --     9 C    0.952
    79   1 H    0.993 --    10 C    0.936
    80   1 H    0.997 --    11 C    0.956
    81   1 H    0.998 --    13 C    0.970
    82   1 H    0.998 --    13 C    0.950
    83   1 H    0.876 --    14 O    0.862
    84   1 H    0.886 --    15 O    0.834
    85   1 H    0.992 --    18 C    0.966
    86   1 H    0.997 --    18 C    0.963
    87   1 H    0.887 --    19 O    0.852
    88   1 H    0.995 --    20 C    0.949
    89   1 H    0.997 --    22 C    0.957
    90   1 H    0.991 --    23 C    0.955
    91   1 H    0.998 --    24 C    0.953
    92   1 H    0.999 --    25 C    0.943
    93   1 H    0.886 --    26 O    0.831
    94   1 H    0.904 --    28 O    0.855
    95   1 H    0.989 --    29 C    0.961
    96   1 H    0.991 --    29 C    0.958
    97   1 H    0.990 --    34 C    0.935
    98   1 H    0.991 --    36 C    0.954
    99   1 H    0.992 --    37 C    0.958
   100   1 H    0.994 --    38 C    0.949
   101   1 H    0.986 --    39 C    0.937
   102   1 H    0.988 --    39 C    0.939
   103   1 H    0.997 --    40 C    0.957
   104   1 H    0.996 --    41 C    0.955
   105   1 H    0.887 --    42 O    0.871
   106   1 H    0.998 --    43 C    0.963
   107   1 H    0.997 --    44 C    0.956
   108   1 H    0.999 --    45 C    0.967
   109   1 H    0.998 --    46 C    0.969
   110   1 H    0.997 --    46 C    0.974
   111   1 H    0.999 --    47 C    0.971
   112   1 H    1.000 --    47 C    0.975
   113   1 H    0.999 --    48 C    0.977
   114   1 H    0.998 --    48 C    0.976
   115   1 H    0.999 --    49 C    0.977
   116   1 H    0.999 --    49 C    0.972
   117   1 H    0.998 --    50 C    0.987
   118   1 H    0.998 --    50 C    0.987
   119   1 H    0.999 --    50 C    0.987
   120   1 H    0.878 --    51 O    0.826
   121   1 H    0.870 --    52 O    0.852
   122   1 H    0.996 --    53 C    0.945
   123   1 H    1.000 --    54 C    0.936
   124   1 H    0.994 --    55 C    0.959
   125   1 H    0.994 --    56 C    0.956
   126   1 H    0.998 --    57 C    0.956
   127   1 H    0.993 --    59 C    0.962
   128   1 H    0.995 --    59 C    0.964
   129   1 H    0.901 --    60 O    0.850
   130   1 H    0.889 --    61 O    0.851
   131   1 H    0.887 --    62 O    0.834
   132   1 H    0.879 --    63 O    0.862
   133   1 H    0.996 --    65 C    0.958
   134   1 H    0.996 --    66 C    0.966
   135   1 H    0.995 --    69 C    0.963
   136   1 H    0.997 --    70 C    0.967
   137   1 H    0.996 --    71 C    0.969
   138   1 H    0.996 --    72 C    0.968
   139   1 H    0.996 --    73 C    0.965
 ---------------------------------------------------------------------------

Topologies differ in total number of bonds
Writing topology from bond orders to xtbtopo.mol

molecular dipole:
                 x           y           z       tot (Debye)
 q only:        2.518       2.099      -2.395
   full:        3.186       1.371      -2.718      11.200
molecular quadrupole (traceless):
                xx          xy          yy          xz          yz          zz
 q only:       16.771     -27.236     -15.346       9.315     -14.334      -1.425
  q+dip:       -1.386     -39.778     -18.083      14.542     -16.845      19.468
   full:       -1.310     -40.040     -14.579      13.190     -12.956      15.890


           -------------------------------------------------
          | TOTAL ENERGY             -230.445537936989 Eh   |
          | GRADIENT NORM               0.133242789377 Eh/α |
          | HOMO-LUMO GAP               1.109094585136 eV   |
           -------------------------------------------------

------------------------------------------------------------------------
 * finished run on 2026/06/19 at 18:52:26.453     
------------------------------------------------------------------------
 total:
 * wall-time:     0 d,  0 h,  0 min,  0.304 sec
 *  cpu-time:     0 d,  0 h,  0 min,  4.605 sec
 * ratio c/w:    15.155 speedup
 SCF:
 * wall-time:     0 d,  0 h,  0 min,  0.250 sec
 *  cpu-time:     0 d,  0 h,  0 min,  3.909 sec
 * ratio c/w:    15.650 speedup

normal termination of xtb
