      -----------------------------------------------------------      
     |                   =====================                   |     
     |                           x T B                           |     
     |                   =====================                   |     
     |                         S. Grimme                         |     
     |          Mulliken Center for Theoretical Chemistry        |     
     |                    University of Bonn                     |     
      -----------------------------------------------------------      

   * xtb version 6.7.1 (edcfbbe) compiled by 'albert@albert-system' on 2024-07-22

   xtb is free software: you can redistribute it and/or modify it under
   the terms of the GNU Lesser General Public License as published by
   the Free Software Foundation, either version 3 of the License, or
   (at your option) any later version.
   
   xtb is distributed in the hope that it will be useful,
   but WITHOUT ANY WARRANTY; without even the implied warranty of
   MERCHANTABILITY or FITNESS FOR A PARTICULAR PURPOSE.  See the
   GNU Lesser General Public License for more details.
   
   Cite this work as:
   * C. Bannwarth, E. Caldeweyher, S. Ehlert, A. Hansen, P. Pracht,
     J. Seibert, S. Spicher, S. Grimme, WIREs Comput. Mol. Sci., 2020, 11,
     e01493. DOI: 10.1002/wcms.1493
   
   for GFN2-xTB:
   * C. Bannwarth, S. Ehlert and S. Grimme., J. Chem. Theory Comput., 2019,
     15, 1652-1671. DOI: 10.1021/acs.jctc.8b01176
   for GFN1-xTB:
   * S. Grimme, C. Bannwarth, P. Shushkov, J. Chem. Theory Comput., 2017,
     13, 1989-2009. DOI: 10.1021/acs.jctc.7b00118
   for GFN0-xTB:
   * P. Pracht, E. Caldeweyher, S. Ehlert, S. Grimme, ChemRxiv, 2019, preprint.
     DOI: 10.26434/chemrxiv.8326202.v1
   for GFN-FF:
   * S. Spicher and S. Grimme, Angew. Chem. Int. Ed., 2020, 59, 15665-15673.
     DOI: 10.1002/anie.202004239
   
   for ALPB and GBSA implicit solvation:
   * S. Ehlert, M. Stahn, S. Spicher, S. Grimme, J. Chem. Theory Comput.,
     2021, 17, 4250-4261. DOI: 10.1021/acs.jctc.1c00471
   
   for ddCOSMO and CPCM-X implicit solvation:
   * M. Stahn, S. Ehlert, S. Grimme, J. Phys. Chem. A,
     2023, XX, XXXX-XXXX. DOI: 10.1021/acs.jpca.3c04382
   
   for DFT-D4:
   * E. Caldeweyher, C. Bannwarth and S. Grimme, J. Chem. Phys., 2017,
     147, 034112. DOI: 10.1063/1.4993215
   * E. Caldeweyher, S. Ehlert, A. Hansen, H. Neugebauer, S. Spicher,
     C. Bannwarth and S. Grimme, J. Chem. Phys., 2019, 150, 154122.
     DOI: 10.1063/1.5090222
   * E. Caldeweyher, J.-M. Mewes, S. Ehlert and S. Grimme, Phys. Chem. Chem. Phys.
     2020, 22, 8499-8512. DOI: 10.1039/D0CP00502A
   
   for sTDA-xTB:
   * S. Grimme and C. Bannwarth, J. Chem. Phys., 2016, 145, 054103.
     DOI: 10.1063/1.4959605
   
   in the mass-spec context:
   * V. Asgeirsson, C. Bauer and S. Grimme, Chem. Sci., 2017, 8, 4879.
     DOI: 10.1039/c7sc00601b
   * J. Koopman and S. Grimme, ACS Omega 2019, 4, 12, 15120-15133.
     DOI: 10.1021/acsomega.9b02011
   
   for metadynamics refer to:
   * S. Grimme, J. Chem. Theory Comput., 2019, 155, 2847-2862
     DOI: 10.1021/acs.jctc.9b00143
   
   for SPH calculations refer to:
   * S. Spicher and S. Grimme, J. Chem. Theory Comput., 2021, 17, 1701-1714
     DOI: 10.1021/acs.jctc.0c01306
   
   for ONIOM refer to:
   * C. Plett, A. Katbashev, S. Ehlert, S. Grimme, M. Bursch,
     Phys. Chem. Chem. Phys., 2023, 25, 17860-17868. DOI: 10.1039/D3CP02178E
   
   for DIPRO refer to:
   * J. Kohn, N. Gildemeister, S. Grimme, D. Fazzi, A. Hansen,
     J. Chem. Phys., 2023, just accepted.
   
   for PTB refer to:
   * S. Grimme, M. Mueller, A. Hansen, J. Chem. Phys., 2023, 158, 124111.
     DOI: 10.1063/5.0137838
   
   with help from (in alphabetical order)
   P. Atkinson, C. Bannwarth, F. Bohle, G. Brandenburg, E. Caldeweyher
   M. Checinski, S. Dohm, S. Ehlert, S. Ehrlich, I. Gerasimov, C. Hölzer
   A. Katbashev, J. Kohn, J. Koopman, C. Lavigne, S. Lehtola, F. März, M. Müller,
   F. Musil, H. Neugebauer, J. Pisarek, C. Plett, P. Pracht, F. Pultar,
   J. Seibert, P. Shushkov, S. Spicher, M. Stahn, M. Steiner, T. Strunk,
   J. Stückrath, T. Rose, and J. Unsleber
   
 * started run on 2026/06/19 at 18:52:28.046     
   ID    Z sym.   atoms
    1    6 C      1-11, 13, 18, 20, 22-25, 29, 31, 33, 34, 36-41, 43-50,
                  53-57, 59, 64-73
    2    8 O      12, 14-17, 19, 21, 26-28, 30, 32, 35, 42, 51, 52, 58, 60-63
    3    1 H      74-139

           -------------------------------------------------
          |                Calculation Setup                |
           -------------------------------------------------

          program call               : xtb PAPU-0076/conf05.xyz --gfn 2 --alpb octanol --chrg 0 --uhf 0 --namespace PAPU-0076/conf05_octanol
          hostname                   : cpu10
          calculation namespace      : PAPU-0076/conf05_octanol
          coordinate file            : PAPU-0076/conf05.xyz
          omp threads                :                    16


           -------------------------------------------------
          |                 G F N 2 - x T B                 |
           -------------------------------------------------

        Reference                      10.1021/acs.jctc.8b01176
      * Hamiltonian:
        H0-scaling (s, p, d)           1.850000    2.230000    2.230000
        zeta-weighting                 0.500000
      * Dispersion:
        s8                             2.700000
        a1                             0.520000
        a2                             5.000000
        s9                             5.000000
      * Repulsion:
        kExp                           1.500000    1.000000
        rExp                           1.000000
      * Coulomb:
        alpha                          2.000000
        third order                    shell-resolved
        anisotropic                    true
        a3                             3.000000
        a5                             4.000000
        cn-shift                       1.200000
        cn-exp                         4.000000
        max-rad                        5.000000

      * Solvation model:               ALPB
        Solvent                        octanol
        Parameter file                 internal GFN2-xTB/ALPB
        Dielectric constant                9.8629E+00
        Reference state                gsolv [1 M gas/solution]
        Free energy shift                  2.3397E-03 Eh       1.4682E+00 kcal/mol
        Temperature                        2.9815E+02 K
        Density                            8.3000E-01 kg/L
        Solvent mass                       1.3023E+02 g/mol
        Interaction kernel             P16
        Born radius scaling (c1)           1.5898E+00
        Born radii integrator          GBOBC
        Born offset                        0.0000E+00 a0       0.0000E+00 AA
        H-bond correction              true
        Ion screening                  false
        Surface tension                    1.0000E-05 Eh       1.5569E+01 dyn/cm
        Grid points                               230 per atom

          ...................................................
          :                      SETUP                      :
          :.................................................:
          :  # basis functions                 358          :
          :  # atomic orbitals                 358          :
          :  # shells                          212          :
          :  # electrons                       400          :
          :  max. iterations                   250          :
          :  Hamiltonian                  GFN2-xTB          :
          :  restarted?                      false          :
          :  GBSA solvation                   true          :
          :  PC potential                    false          :
          :  electronic temp.          300.0000000     K    :
          :  accuracy                    1.0000000          :
          :  -> integral cutoff          0.2500000E+02      :
          :  -> integral neglect         0.1000000E-07      :
          :  -> SCF convergence          0.1000000E-05 Eh   :
          :  -> wf. convergence          0.1000000E-03 e    :
          :  Broyden damping             0.4000000          :
          :  net charge                          0          :
          :  unpaired electrons                  0          :
          ...................................................

 iter      E             dE          RMSdq      gap      omega  full diag
   1   -232.6847362 -0.232685E+03  0.440E+00    2.40       0.0  T
   2   -232.9284204 -0.243684E+00  0.243E+00    1.47       1.0  T
   3   -232.9167201  0.117003E-01  0.103E+00    1.47       1.0  T
   4   -232.9513377 -0.346177E-01  0.285E-01    1.20       1.0  T
   5   -232.9557972 -0.445951E-02  0.118E-01    1.20       1.0  T
   6   -232.9563419 -0.544708E-03  0.605E-02    1.24       1.0  T
   7   -232.9564600 -0.118090E-03  0.262E-02    1.24       1.0  T
   8   -232.9564822 -0.221320E-04  0.116E-02    1.24       1.0  T
   9   -232.9564877 -0.555494E-05  0.450E-03    1.24       1.9  T
  10   -232.9564883 -0.613740E-06  0.280E-03    1.24       3.0  T
  11   -232.9564887 -0.320348E-06  0.134E-03    1.24       6.3  T
  12   -232.9564887 -0.590546E-07  0.511E-04    1.24      16.6  T
  13   -232.9564887 -0.930058E-08  0.222E-04    1.24      38.2  T

   *** convergence criteria satisfied after 13 iterations ***

         #    Occupation            Energy/Eh            Energy/eV
      -------------------------------------------------------------
         1        2.0000           -0.7977666             -21.7083
       ...           ...                  ...                  ...
       194        2.0000           -0.4146108             -11.2821
       195        2.0000           -0.4088154             -11.1244
       196        2.0000           -0.4039138             -10.9911
       197        2.0000           -0.3931578             -10.6984
       198        2.0000           -0.3922980             -10.6750
       199        2.0000           -0.3827018             -10.4138
       200        2.0000           -0.3686761             -10.0322 (HOMO)
       201                         -0.3230174              -8.7897 (LUMO)
       202                         -0.2912364              -7.9249
       203                         -0.2618764              -7.1260
       204                         -0.2394528              -6.5158
       205                         -0.2366338              -6.4391
       ...                                ...                  ...
       358                          0.6969821              18.9658
      -------------------------------------------------------------
                  HL-Gap            0.0456587 Eh            1.2424 eV
             Fermi-level           -0.3458467 Eh           -9.4110 eV

 SCC (total)                   0 d,  0 h,  0 min,  0.250 sec
 SCC setup                      ...        0 min,  0.003 sec (  1.010%)
 Dispersion                     ...        0 min,  0.004 sec (  1.725%)
 classical contributions        ...        0 min,  0.000 sec (  0.048%)
 integral evaluation            ...        0 min,  0.011 sec (  4.456%)
 iterations                     ...        0 min,  0.195 sec ( 78.063%)
 molecular gradient             ...        0 min,  0.034 sec ( 13.784%)
 printout                       ...        0 min,  0.002 sec (  0.898%)

         :::::::::::::::::::::::::::::::::::::::::::::::::::::
         ::                     SUMMARY                     ::
         :::::::::::::::::::::::::::::::::::::::::::::::::::::
         :: total energy            -230.446636470070 Eh    ::
         :: total w/o Gsasa/hb      -230.379473289825 Eh    ::
         :: gradient norm              0.127953882095 Eh/a0 ::
         :: HOMO-LUMO gap              1.242437111084 eV    ::
         ::.................................................::
         :: SCC energy              -232.940097685128 Eh    ::
         :: -> isotropic ES            0.525269374611 Eh    ::
         :: -> anisotropic ES         -0.026816749830 Eh    ::
         :: -> anisotropic XC          0.021099285464 Eh    ::
         :: -> dispersion             -0.196045510084 Eh    ::
         :: -> Gsolv                  -0.096807493267 Eh    ::
         ::    -> Gelec               -0.029644313022 Eh    ::
         ::    -> Gsasa               -0.030690747856 Eh    ::
         ::    -> Ghb                 -0.038812101765 Eh    ::
         ::    -> Gshift               0.002339669376 Eh    ::
         :: repulsion energy           2.493461215058 Eh    ::
         :: add. restraining           0.000000000000 Eh    ::
         :: total charge              -0.000000000000 e     ::
         :::::::::::::::::::::::::::::::::::::::::::::::::::::

           -------------------------------------------------
          |                Property Printout                |
           -------------------------------------------------

    * Orbital Energies and Occupations

         #    Occupation            Energy/Eh            Energy/eV
      -------------------------------------------------------------
         1        2.0000           -0.7977666             -21.7083
       ...           ...                  ...                  ...
       188        2.0000           -0.4246550             -11.5555
       189        2.0000           -0.4230999             -11.5131
       190        2.0000           -0.4223523             -11.4928
       191        2.0000           -0.4200770             -11.4309
       192        2.0000           -0.4152074             -11.2984
       193        2.0000           -0.4151730             -11.2974
       194        2.0000           -0.4146108             -11.2821
       195        2.0000           -0.4088154             -11.1244
       196        2.0000           -0.4039138             -10.9911
       197        2.0000           -0.3931578             -10.6984
       198        2.0000           -0.3922980             -10.6750
       199        2.0000           -0.3827018             -10.4138
       200        2.0000           -0.3686761             -10.0322 (HOMO)
       201                         -0.3230174              -8.7897 (LUMO)
       202                         -0.2912364              -7.9249
       203                         -0.2618764              -7.1260
       204                         -0.2394528              -6.5158
       205                         -0.2366338              -6.4391
       206                         -0.2304529              -6.2709
       207                         -0.2243388              -6.1046
       208                         -0.2222589              -6.0480
       209                         -0.1990777              -5.4172
       210                         -0.1695358              -4.6133
       211                         -0.1479890              -4.0270
       ...                                ...                  ...
       358                          0.6969821              18.9658
      -------------------------------------------------------------
                  HL-Gap            0.0456587 Eh            1.2424 eV
             Fermi-level           -0.3458467 Eh           -9.4110 eV

     #   Z          covCN         q      C6AA      α(0)
     1   6 C        2.840     0.143    24.890     8.176
     2   6 C        2.969    -0.044    29.093     8.847
     3   6 C        2.965     0.010    27.798     8.648
     4   6 C        2.927    -0.098    30.461     9.051
     5   6 C        2.837     0.149    24.765     8.155
     6   6 C        2.921    -0.090    30.246     9.019
     7   6 C        3.740     0.093    19.115     6.238
     8   6 C        3.720     0.099    19.051     6.234
     9   6 C        3.752     0.102    18.953     6.208
    10   6 C        3.744     0.089    19.170     6.246
    11   6 C        3.735     0.090    19.164     6.247
    12   8 O        1.695    -0.342    19.748     6.000
    13   6 C        3.681     0.071    19.598     6.340
    14   8 O        1.653    -0.506    23.017     6.476
    15   8 O        1.651    -0.490    22.670     6.427
    16   8 O        1.696    -0.343    19.765     6.002
    17   8 O        1.701    -0.324    19.409     5.948
    18   6 C        3.675     0.066    19.690     6.358
    19   8 O        1.653    -0.468    22.209     6.362
    20   6 C        3.628     0.234    17.322     5.995
    21   8 O        1.697    -0.350    19.891     6.021
    22   6 C        3.734     0.092    19.148     6.245
    23   6 C        3.722     0.085    19.267     6.268
    24   6 C        3.721     0.089    19.205     6.259
    25   6 C        3.734     0.084    19.270     6.265
    26   8 O        1.652    -0.463    22.120     6.349
    27   8 O        1.698    -0.329    19.510     5.964
    28   8 O        1.653    -0.443    21.707     6.289
    29   6 C        3.722     0.062    19.640     6.329
    30   8 O        1.703    -0.255    18.232     5.765
    31   6 C        2.744     0.356    20.956     7.496
    32   8 O        0.857    -0.453    22.762     6.397
    33   6 C        2.727     0.350    21.054     7.512
    34   6 C        2.896    -0.109    30.759     9.093
    35   8 O        0.858    -0.483    23.409     6.487
    36   6 C        2.902     0.006    27.882     8.658
    37   6 C        2.898    -0.052    29.279     8.872
    38   6 C        2.896    -0.008    28.211     8.708
    39   6 C        3.806    -0.092    22.254     6.716
    40   6 C        3.728     0.110    18.871     6.202
    41   6 C        2.893    -0.073    29.824     8.954
    42   8 O        1.652    -0.498    22.851     6.453
    43   6 C        2.896    -0.038    28.951     8.822
    44   6 C        2.897    -0.053    29.309     8.876
    45   6 C        2.894    -0.047    29.168     8.855
    46   6 C        3.806    -0.066    21.755     6.640
    47   6 C        3.802    -0.062    21.684     6.630
    48   6 C        3.799    -0.064    21.735     6.638
    49   6 C        3.798    -0.054    21.548     6.610
    50   6 C        3.750    -0.117    22.812     6.812
    51   8 O        1.657    -0.431    21.466     6.255
    52   8 O        1.657    -0.435    21.531     6.264
    53   6 C        3.633     0.229    17.374     6.000
    54   6 C        3.723     0.090    19.193     6.256
    55   6 C        3.723     0.096    19.099     6.241
    56   6 C        3.720     0.079    19.382     6.288
    57   6 C        3.739     0.086    19.227     6.257
    58   8 O        1.696    -0.363    20.129     6.057
    59   6 C        3.675     0.063    19.751     6.368
    60   8 O        1.651    -0.458    22.018     6.334
    61   8 O        1.654    -0.475    22.357     6.383
    62   8 O        1.652    -0.485    22.569     6.413
    63   8 O        1.653    -0.467    22.202     6.361
    64   6 C        2.969    -0.031    28.763     8.797
    65   6 C        2.921    -0.031    28.763     8.795
    66   6 C        2.919    -0.034    28.858     8.809
    67   6 C        2.990     0.020    27.557     8.611
    68   6 C        2.989     0.015    27.659     8.627
    69   6 C        2.928    -0.040    28.997     8.831
    70   6 C        2.920    -0.037    28.910     8.817
    71   6 C        2.918    -0.028    28.693     8.784
    72   6 C        2.918    -0.031    28.775     8.796
    73   6 C        2.920    -0.039    28.974     8.827
    74   1 H        0.926     0.061     2.185     2.311
    75   1 H        0.926     0.082     1.962     2.190
    76   1 H        0.924     0.068     2.104     2.268
    77   1 H        0.924     0.039     2.464     2.455
    78   1 H        0.924     0.048     2.350     2.397
    79   1 H        0.924     0.077     2.011     2.218
    80   1 H        0.923     0.047     2.358     2.402
    81   1 H        0.924     0.039     2.462     2.454
    82   1 H        0.924     0.050     2.316     2.380
    83   1 H        0.804     0.350     0.588     1.205
    84   1 H        0.802     0.339     0.614     1.231
    85   1 H        0.924     0.085     1.929     2.172
    86   1 H        0.924     0.050     2.325     2.385
    87   1 H        0.802     0.336     0.624     1.241
    88   1 H        0.923     0.063     2.165     2.301
    89   1 H        0.923     0.050     2.324     2.384
    90   1 H        0.923     0.088     1.895     2.153
    91   1 H        0.923     0.046     2.368     2.407
    92   1 H        0.924     0.038     2.476     2.460
    93   1 H        0.802     0.336     0.624     1.241
    94   1 H        0.802     0.311     0.688     1.303
    95   1 H        0.924     0.098     1.799     2.098
    96   1 H        0.924     0.089     1.884     2.147
    97   1 H        0.926     0.098     1.808     2.102
    98   1 H        0.926     0.090     1.883     2.146
    99   1 H        0.926     0.083     1.953     2.185
   100   1 H        0.926     0.083     1.945     2.181
   101   1 H        0.924     0.088     1.901     2.156
   102   1 H        0.924     0.093     1.853     2.129
   103   1 H        0.923     0.051     2.309     2.377
   104   1 H        0.926     0.069     2.101     2.267
   105   1 H        0.804     0.335     0.623     1.240
   106   1 H        0.926     0.040     2.451     2.448
   107   1 H        0.926     0.036     2.503     2.474
   108   1 H        0.926     0.047     2.363     2.404
   109   1 H        0.924     0.052     2.300     2.372
   110   1 H        0.924     0.044     2.392     2.418
   111   1 H        0.924     0.019     2.750     2.593
   112   1 H        0.924     0.035     2.515     2.480
   113   1 H        0.924     0.035     2.520     2.483
   114   1 H        0.924     0.035     2.513     2.479
   115   1 H        0.924     0.022     2.707     2.573
   116   1 H        0.923     0.036     2.499     2.472
   117   1 H        0.924     0.035     2.522     2.483
   118   1 H        0.925     0.038     2.481     2.463
   119   1 H        0.924     0.037     2.492     2.469
   120   1 H        0.804     0.350     0.589     1.206
   121   1 H        0.804     0.360     0.566     1.181
   122   1 H        0.923     0.058     2.221     2.331
   123   1 H        0.924     0.012     2.853     2.641
   124   1 H        0.923     0.037     2.487     2.466
   125   1 H        0.923     0.080     1.978     2.199
   126   1 H        0.923     0.040     2.447     2.446
   127   1 H        0.924     0.078     1.999     2.211
   128   1 H        0.924     0.062     2.180     2.309
   129   1 H        0.802     0.325     0.650     1.267
   130   1 H        0.804     0.359     0.567     1.182
   131   1 H        0.802     0.335     0.626     1.243
   132   1 H        0.803     0.351     0.586     1.203
   133   1 H        0.926     0.063     2.168     2.302
   134   1 H        0.926     0.067     2.116     2.275
   135   1 H        0.926     0.065     2.141     2.288
   136   1 H        0.926     0.054     2.266     2.354
   137   1 H        0.926     0.056     2.241     2.341
   138   1 H        0.926     0.054     2.271     2.357
   139   1 H        0.926     0.043     2.404     2.424

 Mol. C6AA /au·bohr⁶  :     192891.521522
 Mol. C8AA /au·bohr⁸  :    4431824.693525
 Mol. α(0) /au        :        662.758010


Wiberg/Mayer (AO) data.
largest (>0.10) Wiberg bond orders for each atom

 ---------------------------------------------------------------------------
     #   Z sym  total        # sym  WBO       # sym  WBO       # sym  WBO
 ---------------------------------------------------------------------------
     1   6 C    3.944 --     6 C    1.384     2 C    1.332    51 O    1.084
     2   6 C    3.970 --     3 C    1.391     1 C    1.332     7 C    0.988
     3   6 C    3.987 --     4 C    1.424     2 C    1.391    13 C    1.004
     4   6 C    3.978 --     3 C    1.424     5 C    1.360    74 H    0.962
     5   6 C    3.944 --     6 C    1.383     4 C    1.360    52 O    1.075
     6   6 C    3.978 --     1 C    1.384     5 C    1.383    75 H    0.962
     7   6 C    3.927 --     2 C    0.988     8 C    0.947    12 O    0.946
                            76 H    0.944
     8   6 C    3.953 --    15 O    0.994     9 C    0.966    77 H    0.951
                             7 C    0.947
     9   6 C    3.923 --    10 C    0.970     8 C    0.966    78 H    0.951
                            17 O    0.926
    10   6 C    3.927 --     9 C    0.970    11 C    0.959    16 O    0.947
                            79 H    0.939
    11   6 C    3.946 --    18 C    0.975    12 O    0.969    10 C    0.959
                            80 H    0.956
    12   8 O    2.082 --    11 C    0.969     7 C    0.946
    13   6 C    3.952 --     3 C    1.004    14 O    0.983    81 H    0.970
                            82 H    0.949
    14   8 O    1.917 --    13 C    0.983    83 H    0.862
    15   8 O    1.930 --     8 C    0.994    84 H    0.833
    16   8 O    2.091 --    20 C    0.970    10 C    0.947
    17   8 O    2.257 --    33 C    1.051     9 C    0.926    35 O    0.132
    18   6 C    3.957 --    19 O    1.018    11 C    0.975    85 H    0.966
                            86 H    0.964
    19   8 O    1.941 --    18 C    1.018    87 H    0.852
    20   6 C    3.919 --    16 O    0.970    21 O    0.968    25 C    0.951
                            88 H    0.949
    21   8 O    2.072 --    20 C    0.968    22 C    0.943
    22   6 C    3.932 --    29 C    0.979    23 C    0.961    89 H    0.957
                            21 O    0.943
    23   6 C    3.959 --    28 O    1.009    24 C    0.962    22 C    0.961
                            90 H    0.955
    24   6 C    3.964 --    26 O    1.003    25 C    0.963    23 C    0.962
                            91 H    0.956
    25   6 C    3.942 --    24 C    0.963    27 O    0.955    20 C    0.951
                            92 H    0.945
    26   8 O    1.946 --    24 C    1.003    93 H    0.827
    27   8 O    2.107 --    53 C    0.984    25 C    0.955
    28   8 O    1.980 --    23 C    1.009    94 H    0.853
    29   6 C    3.928 --    22 C    0.979    30 O    0.967    95 H    0.961
                            96 H    0.957
    30   8 O    2.296 --    31 C    1.100    29 C    0.967    32 O    0.153
    31   6 C    3.899 --    32 O    1.688    30 O    1.100    64 C    1.016
    32   8 O    2.005 --    31 C    1.688    30 O    0.153
    33   6 C    3.888 --    35 O    1.594    34 C    1.110    17 O    1.051
    34   6 C    3.969 --    36 C    1.681    33 C    1.110    97 H    0.939
    35   8 O    1.993 --    33 C    1.594    17 O    0.132
    36   6 C    3.965 --    34 C    1.681    37 C    1.165    98 H    0.953
    37   6 C    3.983 --    38 C    1.753    36 C    1.165    99 H    0.957
    38   6 C    3.969 --    37 C    1.753    39 C    1.051   100 H    0.947
    39   6 C    3.989 --    38 C    1.051    40 C    0.984   101 H    0.945
                           102 H    0.933
    40   6 C    3.952 --    41 C    1.000    39 C    0.984    42 O    0.974
                           103 H    0.953
    41   6 C    3.985 --    43 C    1.854    40 C    1.000   104 H    0.950
                            45 C    0.111
    42   8 O    1.929 --    40 C    0.974   105 H    0.872
    43   6 C    3.991 --    41 C    1.854    44 C    1.107   106 H    0.963
    44   6 C    3.990 --    45 C    1.844    43 C    1.107   107 H    0.965
    45   6 C    3.989 --    44 C    1.844    46 C    1.029   108 H    0.956
                            41 C    0.111
    46   6 C    3.997 --    45 C    1.029    47 C    1.005   110 H    0.963
                           109 H    0.954
    47   6 C    3.995 --    48 C    1.009    46 C    1.005   111 H    0.974
                           112 H    0.968
    48   6 C    3.996 --    47 C    1.009    49 C    1.007   113 H    0.977
                           114 H    0.976
    49   6 C    3.997 --    50 C    1.021    48 C    1.007   116 H    0.977
                           115 H    0.977
    50   6 C    3.995 --    49 C    1.021   119 H    0.987   117 H    0.986
                           118 H    0.976
    51   8 O    2.097 --     1 C    1.084   120 H    0.825
    52   8 O    2.083 --     5 C    1.075   121 H    0.852
    53   6 C    3.917 --    27 O    0.984    58 O    0.953    54 C    0.949
                           122 H    0.942
    54   6 C    3.961 --    62 O    0.999    55 C    0.966    53 C    0.949
                           123 H    0.943
    55   6 C    3.965 --    61 O    1.006    56 C    0.967    54 C    0.966
                           124 H    0.958
    56   6 C    3.962 --    60 O    1.012    55 C    0.967    57 C    0.957
                           125 H    0.956
    57   6 C    3.926 --    59 C    0.979    56 C    0.957   126 H    0.956
                            58 O    0.933
    58   8 O    2.071 --    53 C    0.953    57 C    0.933
    59   6 C    3.954 --    63 O    1.011    57 C    0.979   128 H    0.964
                           127 H    0.959
    60   8 O    1.957 --    56 C    1.012   129 H    0.848
    61   8 O    1.932 --    55 C    1.006   130 H    0.853
    62   8 O    1.931 --    54 C    0.999   131 H    0.839
    63   8 O    1.947 --    59 C    1.011   132 H    0.862
    64   6 C    3.983 --    69 C    1.479    65 C    1.272    31 C    1.016
    65   6 C    3.988 --    66 C    1.570    64 C    1.272   133 H    0.965
    66   6 C    3.988 --    65 C    1.570    67 C    1.269   134 H    0.963
                            69 C    0.111
    67   6 C    3.990 --    70 C    1.279    66 C    1.269    68 C    1.250
    68   6 C    3.990 --    69 C    1.290    73 C    1.269    67 C    1.250
    69   6 C    3.987 --    64 C    1.479    68 C    1.290   135 H    0.956
                            66 C    0.111
    70   6 C    3.989 --    71 C    1.558    67 C    1.279   136 H    0.967
                            73 C    0.118
    71   6 C    3.982 --    70 C    1.558    72 C    1.318   137 H    0.968
    72   6 C    3.991 --    73 C    1.563    71 C    1.318   138 H    0.969
    73   6 C    3.987 --    72 C    1.563    68 C    1.269   139 H    0.967
                            70 C    0.118
    74   1 H    0.996 --     4 C    0.962
    75   1 H    0.993 --     6 C    0.962
    76   1 H    0.995 --     7 C    0.944
    77   1 H    0.998 --     8 C    0.951
    78   1 H    0.997 --     9 C    0.951
    79   1 H    0.994 --    10 C    0.939
    80   1 H    0.998 --    11 C    0.956
    81   1 H    0.998 --    13 C    0.970
    82   1 H    0.997 --    13 C    0.949
    83   1 H    0.877 --    14 O    0.862
    84   1 H    0.885 --    15 O    0.833
    85   1 H    0.992 --    18 C    0.966
    86   1 H    0.997 --    18 C    0.964
    87   1 H    0.887 --    19 O    0.852
    88   1 H    0.995 --    20 C    0.949
    89   1 H    0.997 --    22 C    0.957
    90   1 H    0.992 --    23 C    0.955
    91   1 H    0.998 --    24 C    0.956
    92   1 H    0.998 --    25 C    0.945
    93   1 H    0.887 --    26 O    0.827
    94   1 H    0.903 --    28 O    0.853
    95   1 H    0.989 --    29 C    0.961
    96   1 H    0.991 --    29 C    0.957
    97   1 H    0.990 --    34 C    0.939
    98   1 H    0.992 --    36 C    0.953
    99   1 H    0.992 --    37 C    0.957
   100   1 H    0.993 --    38 C    0.947
   101   1 H    0.988 --    39 C    0.945
   102   1 H    0.987 --    39 C    0.933
   103   1 H    0.997 --    40 C    0.953
   104   1 H    0.995 --    41 C    0.950
   105   1 H    0.887 --    42 O    0.872
   106   1 H    0.998 --    43 C    0.963
   107   1 H    0.998 --    44 C    0.965
   108   1 H    0.998 --    45 C    0.956
   109   1 H    0.997 --    46 C    0.954
   110   1 H    0.998 --    46 C    0.963
   111   1 H    1.000 --    47 C    0.974
   112   1 H    0.999 --    47 C    0.968
   113   1 H    0.999 --    48 C    0.977
   114   1 H    0.999 --    48 C    0.976
   115   1 H    1.000 --    49 C    0.977
   116   1 H    0.998 --    49 C    0.977
   117   1 H    0.999 --    50 C    0.986
   118   1 H    0.999 --    50 C    0.976
   119   1 H    0.999 --    50 C    0.987
   120   1 H    0.877 --    51 O    0.825
   121   1 H    0.870 --    52 O    0.852
   122   1 H    0.996 --    53 C    0.942
   123   1 H    1.000 --    54 C    0.943
   124   1 H    0.998 --    55 C    0.958
   125   1 H    0.993 --    56 C    0.956
   126   1 H    0.998 --    57 C    0.956
   127   1 H    0.994 --    59 C    0.959
   128   1 H    0.995 --    59 C    0.964
   129   1 H    0.894 --    60 O    0.848
   130   1 H    0.870 --    61 O    0.853
   131   1 H    0.888 --    62 O    0.839
   132   1 H    0.877 --    63 O    0.862
   133   1 H    0.996 --    65 C    0.965
   134   1 H    0.995 --    66 C    0.963
   135   1 H    0.995 --    69 C    0.956
   136   1 H    0.997 --    70 C    0.967
   137   1 H    0.996 --    71 C    0.968
   138   1 H    0.997 --    72 C    0.969
   139   1 H    0.998 --    73 C    0.967
 ---------------------------------------------------------------------------

Topologies differ in total number of bonds
Writing topology from bond orders to xtbtopo.mol

molecular dipole:
                 x           y           z       tot (Debye)
 q only:        2.983       1.455      -2.542
   full:        3.784       0.480      -2.785      12.005
molecular quadrupole (traceless):
                xx          xy          yy          xz          yz          zz
 q only:       15.237     -23.876     -13.177      18.465     -10.517      -2.061
  q+dip:        3.493     -36.524     -16.835      25.678     -10.394      13.342
   full:        2.629     -37.002     -13.110      23.683      -7.267      10.481


           -------------------------------------------------
          | TOTAL ENERGY             -230.446636470070 Eh   |
          | GRADIENT NORM               0.127953882095 Eh/α |
          | HOMO-LUMO GAP               1.242437111084 eV   |
           -------------------------------------------------

------------------------------------------------------------------------
 * finished run on 2026/06/19 at 18:52:28.350     
------------------------------------------------------------------------
 total:
 * wall-time:     0 d,  0 h,  0 min,  0.304 sec
 *  cpu-time:     0 d,  0 h,  0 min,  4.654 sec
 * ratio c/w:    15.335 speedup
 SCF:
 * wall-time:     0 d,  0 h,  0 min,  0.251 sec
 *  cpu-time:     0 d,  0 h,  0 min,  3.963 sec
 * ratio c/w:    15.767 speedup

normal termination of xtb
