      -----------------------------------------------------------      
     |                   =====================                   |     
     |                           x T B                           |     
     |                   =====================                   |     
     |                         S. Grimme                         |     
     |          Mulliken Center for Theoretical Chemistry        |     
     |                    University of Bonn                     |     
      -----------------------------------------------------------      

   * xtb version 6.7.1 (edcfbbe) compiled by 'albert@albert-system' on 2024-07-22

   xtb is free software: you can redistribute it and/or modify it under
   the terms of the GNU Lesser General Public License as published by
   the Free Software Foundation, either version 3 of the License, or
   (at your option) any later version.
   
   xtb is distributed in the hope that it will be useful,
   but WITHOUT ANY WARRANTY; without even the implied warranty of
   MERCHANTABILITY or FITNESS FOR A PARTICULAR PURPOSE.  See the
   GNU Lesser General Public License for more details.
   
   Cite this work as:
   * C. Bannwarth, E. Caldeweyher, S. Ehlert, A. Hansen, P. Pracht,
     J. Seibert, S. Spicher, S. Grimme, WIREs Comput. Mol. Sci., 2020, 11,
     e01493. DOI: 10.1002/wcms.1493
   
   for GFN2-xTB:
   * C. Bannwarth, S. Ehlert and S. Grimme., J. Chem. Theory Comput., 2019,
     15, 1652-1671. DOI: 10.1021/acs.jctc.8b01176
   for GFN1-xTB:
   * S. Grimme, C. Bannwarth, P. Shushkov, J. Chem. Theory Comput., 2017,
     13, 1989-2009. DOI: 10.1021/acs.jctc.7b00118
   for GFN0-xTB:
   * P. Pracht, E. Caldeweyher, S. Ehlert, S. Grimme, ChemRxiv, 2019, preprint.
     DOI: 10.26434/chemrxiv.8326202.v1
   for GFN-FF:
   * S. Spicher and S. Grimme, Angew. Chem. Int. Ed., 2020, 59, 15665-15673.
     DOI: 10.1002/anie.202004239
   
   for ALPB and GBSA implicit solvation:
   * S. Ehlert, M. Stahn, S. Spicher, S. Grimme, J. Chem. Theory Comput.,
     2021, 17, 4250-4261. DOI: 10.1021/acs.jctc.1c00471
   
   for ddCOSMO and CPCM-X implicit solvation:
   * M. Stahn, S. Ehlert, S. Grimme, J. Phys. Chem. A,
     2023, XX, XXXX-XXXX. DOI: 10.1021/acs.jpca.3c04382
   
   for DFT-D4:
   * E. Caldeweyher, C. Bannwarth and S. Grimme, J. Chem. Phys., 2017,
     147, 034112. DOI: 10.1063/1.4993215
   * E. Caldeweyher, S. Ehlert, A. Hansen, H. Neugebauer, S. Spicher,
     C. Bannwarth and S. Grimme, J. Chem. Phys., 2019, 150, 154122.
     DOI: 10.1063/1.5090222
   * E. Caldeweyher, J.-M. Mewes, S. Ehlert and S. Grimme, Phys. Chem. Chem. Phys.
     2020, 22, 8499-8512. DOI: 10.1039/D0CP00502A
   
   for sTDA-xTB:
   * S. Grimme and C. Bannwarth, J. Chem. Phys., 2016, 145, 054103.
     DOI: 10.1063/1.4959605
   
   in the mass-spec context:
   * V. Asgeirsson, C. Bauer and S. Grimme, Chem. Sci., 2017, 8, 4879.
     DOI: 10.1039/c7sc00601b
   * J. Koopman and S. Grimme, ACS Omega 2019, 4, 12, 15120-15133.
     DOI: 10.1021/acsomega.9b02011
   
   for metadynamics refer to:
   * S. Grimme, J. Chem. Theory Comput., 2019, 155, 2847-2862
     DOI: 10.1021/acs.jctc.9b00143
   
   for SPH calculations refer to:
   * S. Spicher and S. Grimme, J. Chem. Theory Comput., 2021, 17, 1701-1714
     DOI: 10.1021/acs.jctc.0c01306
   
   for ONIOM refer to:
   * C. Plett, A. Katbashev, S. Ehlert, S. Grimme, M. Bursch,
     Phys. Chem. Chem. Phys., 2023, 25, 17860-17868. DOI: 10.1039/D3CP02178E
   
   for DIPRO refer to:
   * J. Kohn, N. Gildemeister, S. Grimme, D. Fazzi, A. Hansen,
     J. Chem. Phys., 2023, just accepted.
   
   for PTB refer to:
   * S. Grimme, M. Mueller, A. Hansen, J. Chem. Phys., 2023, 158, 124111.
     DOI: 10.1063/5.0137838
   
   with help from (in alphabetical order)
   P. Atkinson, C. Bannwarth, F. Bohle, G. Brandenburg, E. Caldeweyher
   M. Checinski, S. Dohm, S. Ehlert, S. Ehrlich, I. Gerasimov, C. Hölzer
   A. Katbashev, J. Kohn, J. Koopman, C. Lavigne, S. Lehtola, F. März, M. Müller,
   F. Musil, H. Neugebauer, J. Pisarek, C. Plett, P. Pracht, F. Pultar,
   J. Seibert, P. Shushkov, S. Spicher, M. Stahn, M. Steiner, T. Strunk,
   J. Stückrath, T. Rose, and J. Unsleber
   
 * started run on 2026/06/19 at 18:52:11.831     
   ID    Z sym.   atoms
    1    6 C      1-6, 9, 11-15, 20, 22-37, 40, 42-46, 50-54, 60
    2    8 O      7, 8, 10, 16-19, 21, 38, 39, 41, 47-49, 55-59, 61
    3    1 H      62-121

           -------------------------------------------------
          |                Calculation Setup                |
           -------------------------------------------------

          program call               : xtb PAPU-0067/conf01.xyz --gfn 2 --alpb octanol --chrg 0 --uhf 0 --namespace PAPU-0067/conf01_octanol
          hostname                   : cpu10
          calculation namespace      : PAPU-0067/conf01_octanol
          coordinate file            : PAPU-0067/conf01.xyz
          omp threads                :                    16


           -------------------------------------------------
          |                 G F N 2 - x T B                 |
           -------------------------------------------------

        Reference                      10.1021/acs.jctc.8b01176
      * Hamiltonian:
        H0-scaling (s, p, d)           1.850000    2.230000    2.230000
        zeta-weighting                 0.500000
      * Dispersion:
        s8                             2.700000
        a1                             0.520000
        a2                             5.000000
        s9                             5.000000
      * Repulsion:
        kExp                           1.500000    1.000000
        rExp                           1.000000
      * Coulomb:
        alpha                          2.000000
        third order                    shell-resolved
        anisotropic                    true
        a3                             3.000000
        a5                             4.000000
        cn-shift                       1.200000
        cn-exp                         4.000000
        max-rad                        5.000000

      * Solvation model:               ALPB
        Solvent                        octanol
        Parameter file                 internal GFN2-xTB/ALPB
        Dielectric constant                9.8629E+00
        Reference state                gsolv [1 M gas/solution]
        Free energy shift                  2.3397E-03 Eh       1.4682E+00 kcal/mol
        Temperature                        2.9815E+02 K
        Density                            8.3000E-01 kg/L
        Solvent mass                       1.3023E+02 g/mol
        Interaction kernel             P16
        Born radius scaling (c1)           1.5898E+00
        Born radii integrator          GBOBC
        Born offset                        0.0000E+00 a0       0.0000E+00 AA
        H-bond correction              true
        Ion screening                  false
        Surface tension                    1.0000E-05 Eh       1.5569E+01 dyn/cm
        Grid points                               230 per atom

          ...................................................
          :                      SETUP                      :
          :.................................................:
          :  # basis functions                 304          :
          :  # atomic orbitals                 304          :
          :  # shells                          182          :
          :  # electrons                       344          :
          :  max. iterations                   250          :
          :  Hamiltonian                  GFN2-xTB          :
          :  restarted?                      false          :
          :  GBSA solvation                   true          :
          :  PC potential                    false          :
          :  electronic temp.          300.0000000     K    :
          :  accuracy                    1.0000000          :
          :  -> integral cutoff          0.2500000E+02      :
          :  -> integral neglect         0.1000000E-07      :
          :  -> SCF convergence          0.1000000E-05 Eh   :
          :  -> wf. convergence          0.1000000E-03 e    :
          :  Broyden damping             0.4000000          :
          :  net charge                          0          :
          :  unpaired electrons                  0          :
          ...................................................

 iter      E             dE          RMSdq      gap      omega  full diag
   1   -201.4603791 -0.201460E+03  0.434E+00    2.45       0.0  T
   2   -201.6626363 -0.202257E+00  0.237E+00    1.41       1.0  T
   3   -201.6540819  0.855446E-02  0.973E-01    1.29       1.0  T
   4   -201.6807074 -0.266256E-01  0.277E-01    1.03       1.0  T
   5   -201.6842996 -0.359220E-02  0.114E-01    1.02       1.0  T
   6   -201.6847073 -0.407673E-03  0.584E-02    1.07       1.0  T
   7   -201.6848409 -0.133651E-03  0.254E-02    1.07       1.0  T
   8   -201.6848604 -0.194629E-04  0.104E-02    1.07       1.0  T
   9   -201.6848643 -0.388773E-05  0.416E-03    1.07       2.2  T
  10   -201.6848648 -0.463692E-06  0.229E-03    1.07       4.0  T
  11   -201.6848649 -0.157053E-06  0.128E-03    1.07       7.1  T
  12   -201.6848650 -0.507539E-07  0.449E-04    1.07      20.2  T
  13   -201.6848650 -0.575110E-08  0.190E-04    1.07      47.8  T

   *** convergence criteria satisfied after 13 iterations ***

         #    Occupation            Energy/Eh            Energy/eV
      -------------------------------------------------------------
         1        2.0000           -0.8049712             -21.9044
       ...           ...                  ...                  ...
       166        2.0000           -0.4158579             -11.3161
       167        2.0000           -0.4105614             -11.1719
       168        2.0000           -0.4104973             -11.1702
       169        2.0000           -0.4100559             -11.1582
       170        2.0000           -0.4073086             -11.0834
       171        2.0000           -0.3973017             -10.8111
       172        2.0000           -0.3751879             -10.2094 (HOMO)
       173                         -0.3359583              -9.1419 (LUMO)
       174                         -0.2549205              -6.9367
       175                         -0.2440758              -6.6416
       176                         -0.2409433              -6.5564
       177                         -0.2363646              -6.4318
       ...                                ...                  ...
       304                          0.6709132              18.2565
      -------------------------------------------------------------
                  HL-Gap            0.0392297 Eh            1.0675 eV
             Fermi-level           -0.3555731 Eh           -9.6756 eV

 SCC (total)                   0 d,  0 h,  0 min,  0.185 sec
 SCC setup                      ...        0 min,  0.003 sec (  1.472%)
 Dispersion                     ...        0 min,  0.003 sec (  1.569%)
 classical contributions        ...        0 min,  0.000 sec (  0.087%)
 integral evaluation            ...        0 min,  0.008 sec (  4.574%)
 iterations                     ...        0 min,  0.143 sec ( 77.110%)
 molecular gradient             ...        0 min,  0.027 sec ( 14.339%)
 printout                       ...        0 min,  0.002 sec (  0.829%)

         :::::::::::::::::::::::::::::::::::::::::::::::::::::
         ::                     SUMMARY                     ::
         :::::::::::::::::::::::::::::::::::::::::::::::::::::
         :: total energy            -199.728033660136 Eh    ::
         :: total w/o Gsasa/hb      -199.667762705898 Eh    ::
         :: gradient norm              0.118369190712 Eh/a0 ::
         :: HOMO-LUMO gap              1.067493662082 eV    ::
         ::.................................................::
         :: SCC energy              -201.675304300499 Eh    ::
         :: -> isotropic ES            0.492417840012 Eh    ::
         :: -> anisotropic ES         -0.017653097044 Eh    ::
         :: -> anisotropic XC          0.006094229227 Eh    ::
         :: -> dispersion             -0.153061714562 Eh    ::
         :: -> Gsolv                  -0.083023458988 Eh    ::
         ::    -> Gelec               -0.022752504750 Eh    ::
         ::    -> Gsasa               -0.023219953729 Eh    ::
         ::    -> Ghb                 -0.039390669885 Eh    ::
         ::    -> Gshift               0.002339669376 Eh    ::
         :: repulsion energy           1.947270640362 Eh    ::
         :: add. restraining           0.000000000000 Eh    ::
         :: total charge              -0.000000000000 e     ::
         :::::::::::::::::::::::::::::::::::::::::::::::::::::

           -------------------------------------------------
          |                Property Printout                |
           -------------------------------------------------

    * Orbital Energies and Occupations

         #    Occupation            Energy/Eh            Energy/eV
      -------------------------------------------------------------
         1        2.0000           -0.8049712             -21.9044
       ...           ...                  ...                  ...
       160        2.0000           -0.4283615             -11.6563
       161        2.0000           -0.4269830             -11.6188
       162        2.0000           -0.4245949             -11.5538
       163        2.0000           -0.4221234             -11.4866
       164        2.0000           -0.4199044             -11.4262
       165        2.0000           -0.4161539             -11.3241
       166        2.0000           -0.4158579             -11.3161
       167        2.0000           -0.4105614             -11.1719
       168        2.0000           -0.4104973             -11.1702
       169        2.0000           -0.4100559             -11.1582
       170        2.0000           -0.4073086             -11.0834
       171        2.0000           -0.3973017             -10.8111
       172        2.0000           -0.3751879             -10.2094 (HOMO)
       173                         -0.3359583              -9.1419 (LUMO)
       174                         -0.2549205              -6.9367
       175                         -0.2440758              -6.6416
       176                         -0.2409433              -6.5564
       177                         -0.2363646              -6.4318
       178                         -0.1820405              -4.9536
       179                         -0.1537172              -4.1829
       180                         -0.1223523              -3.3294
       181                         -0.1202862              -3.2732
       182                         -0.0916154              -2.4930
       183                         -0.0840647              -2.2875
       ...                                ...                  ...
       304                          0.6709132              18.2565
      -------------------------------------------------------------
                  HL-Gap            0.0392297 Eh            1.0675 eV
             Fermi-level           -0.3555731 Eh           -9.6756 eV

     #   Z          covCN         q      C6AA      α(0)
     1   6 C        2.974    -0.037    28.905     8.819
     2   6 C        2.841     0.145    24.840     8.168
     3   6 C        2.920    -0.103    30.598     9.071
     4   6 C        2.838     0.152    24.690     8.143
     5   6 C        2.927    -0.092    30.303     9.028
     6   6 C        2.964    -0.002    28.079     8.692
     7   8 O        1.657    -0.440    21.648     6.281
     8   8 O        1.657    -0.432    21.478     6.256
     9   6 C        3.682     0.074    19.539     6.330
    10   8 O        1.652    -0.488    22.643     6.424
    11   6 C        3.747     0.107    18.889     6.199
    12   6 C        3.719     0.093    19.152     6.251
    13   6 C        3.749     0.099    19.006     6.218
    14   6 C        3.740     0.086    19.231     6.257
    15   6 C        3.743     0.092    19.121     6.238
    16   8 O        1.696    -0.330    19.529     5.966
    17   8 O        1.651    -0.501    22.914     6.462
    18   8 O        1.697    -0.331    19.542     5.968
    19   8 O        1.701    -0.312    19.213     5.918
    20   6 C        3.675     0.069    19.646     6.351
    21   8 O        1.654    -0.474    22.342     6.381
    22   6 C        2.723     0.347    21.098     7.519
    23   6 C        2.895    -0.119    31.019     9.132
    24   6 C        2.899    -0.002    28.078     8.688
    25   6 C        2.897    -0.051    29.257     8.869
    26   6 C        2.894    -0.007    28.187     8.705
    27   6 C        3.806    -0.086    22.141     6.699
    28   6 C        3.729     0.114    18.806     6.191
    29   6 C        2.894    -0.076    29.897     8.965
    30   6 C        2.898    -0.036    28.890     8.813
    31   6 C        2.897    -0.049    29.216     8.862
    32   6 C        2.894    -0.048    29.179     8.856
    33   6 C        3.805    -0.062    21.683     6.629
    34   6 C        3.800    -0.059    21.630     6.622
    35   6 C        3.800    -0.063    21.704     6.633
    36   6 C        3.799    -0.052    21.514     6.604
    37   6 C        3.751    -0.116    22.780     6.807
    38   8 O        0.857    -0.484    23.443     6.492
    39   8 O        1.651    -0.485    22.567     6.413
    40   6 C        3.629     0.230    17.373     6.002
    41   8 O        1.695    -0.349    19.873     6.019
    42   6 C        3.739     0.081    19.304     6.269
    43   6 C        3.724     0.069    19.523     6.310
    44   6 C        3.724     0.083    19.308     6.275
    45   6 C        3.746     0.086    19.220     6.253
    46   6 C        3.675     0.064    19.727     6.364
    47   8 O        1.652    -0.458    22.007     6.333
    48   8 O        1.653    -0.447    21.777     6.299
    49   8 O        1.697    -0.332    19.562     5.971
    50   6 C        3.632     0.245    17.162     5.964
    51   6 C        3.720     0.092    19.173     6.254
    52   6 C        3.721     0.090    19.198     6.258
    53   6 C        3.720     0.086    19.256     6.267
    54   6 C        3.734     0.077    19.386     6.284
    55   8 O        1.695    -0.323    19.399     5.947
    56   8 O        1.654    -0.473    22.326     6.379
    57   8 O        1.653    -0.476    22.391     6.388
    58   8 O        1.651    -0.486    22.585     6.415
    59   8 O        1.653    -0.473    22.325     6.378
    60   6 C        3.675     0.056    19.851     6.384
    61   8 O        1.652    -0.463    22.120     6.349
    62   1 H        0.926     0.077     2.013     2.219
    63   1 H        0.926     0.067     2.119     2.276
    64   1 H        0.804     0.365     0.555     1.170
    65   1 H        0.804     0.362     0.562     1.177
    66   1 H        0.924     0.064     2.156     2.296
    67   1 H        0.924     0.028     2.609     2.526
    68   1 H        0.802     0.325     0.650     1.266
    69   1 H        0.924     0.038     2.474     2.460
    70   1 H        0.923     0.068     2.110     2.271
    71   1 H        0.924     0.048     2.341     2.393
    72   1 H        0.924     0.083     1.950     2.184
    73   1 H        0.923     0.044     2.399     2.422
    74   1 H        0.803     0.342     0.607     1.224
    75   1 H        0.924     0.047     2.355     2.400
    76   1 H        0.924     0.076     2.025     2.225
    77   1 H        0.803     0.353     0.582     1.199
    78   1 H        0.926     0.099     1.796     2.095
    79   1 H        0.926     0.082     1.958     2.188
    80   1 H        0.926     0.093     1.849     2.126
    81   1 H        0.926     0.070     2.088     2.260
    82   1 H        0.924     0.072     2.067     2.248
    83   1 H        0.924     0.084     1.938     2.177
    84   1 H        0.923     0.060     2.200     2.319
    85   1 H        0.926     0.050     2.318     2.381
    86   1 H        0.926     0.050     2.315     2.379
    87   1 H        0.926     0.044     2.399     2.422
    88   1 H        0.926     0.052     2.300     2.371
    89   1 H        0.924     0.033     2.545     2.495
    90   1 H        0.924     0.043     2.415     2.430
    91   1 H        0.924     0.036     2.506     2.475
    92   1 H        0.924     0.035     2.519     2.482
    93   1 H        0.924     0.043     2.412     2.429
    94   1 H        0.924     0.019     2.756     2.596
    95   1 H        0.924     0.028     2.614     2.528
    96   1 H        0.924     0.028     2.615     2.529
    97   1 H        0.924     0.027     2.634     2.538
    98   1 H        0.924     0.032     2.563     2.503
    99   1 H        0.924     0.051     2.305     2.374
   100   1 H        0.803     0.324     0.653     1.270
   101   1 H        0.923     0.065     2.140     2.288
   102   1 H        0.923     0.048     2.342     2.393
   103   1 H        0.923     0.089     1.891     2.151
   104   1 H        0.923     0.079     1.987     2.204
   105   1 H        0.924     0.024     2.667     2.554
   106   1 H        0.924     0.084     1.942     2.179
   107   1 H        0.924     0.060     2.200     2.320
   108   1 H        0.802     0.318     0.668     1.284
   109   1 H        0.803     0.308     0.697     1.312
   110   1 H        0.924     0.006     2.960     2.690
   111   1 H        0.923     0.008     2.926     2.675
   112   1 H        0.923     0.060     2.197     2.318
   113   1 H        0.923     0.076     2.026     2.226
   114   1 H        0.923     0.094     1.836     2.119
   115   1 H        0.804     0.347     0.596     1.212
   116   1 H        0.803     0.355     0.576     1.192
   117   1 H        0.802     0.333     0.629     1.246
   118   1 H        0.803     0.351     0.585     1.202
   119   1 H        0.924     0.034     2.526     2.486
   120   1 H        0.924     0.080     1.978     2.199
   121   1 H        0.802     0.318     0.668     1.284

 Mol. C6AA /au·bohr⁶  :     135148.133486
 Mol. C8AA /au·bohr⁸  :    3034213.770847
 Mol. α(0) /au        :        547.142277


Wiberg/Mayer (AO) data.
largest (>0.10) Wiberg bond orders for each atom

 ---------------------------------------------------------------------------
     #   Z sym  total        # sym  WBO       # sym  WBO       # sym  WBO
 ---------------------------------------------------------------------------
     1   6 C    3.973 --     6 C    1.393     2 C    1.332    11 C    0.991
     2   6 C    3.943 --     3 C    1.395     1 C    1.332     7 O    1.072
     3   6 C    3.978 --     2 C    1.395     4 C    1.375    62 H    0.960
     4   6 C    3.944 --     3 C    1.375     5 C    1.362     8 O    1.081
     5   6 C    3.981 --     6 C    1.425     4 C    1.362    63 H    0.962
     6   6 C    3.986 --     5 C    1.425     1 C    1.393     9 C    1.001
     7   8 O    2.085 --     2 C    1.072    64 H    0.847
     8   8 O    2.091 --     4 C    1.081    65 H    0.851
     9   6 C    3.957 --     6 C    1.001    10 O    0.990    66 H    0.968
                            67 H    0.955
    10   8 O    1.927 --     9 C    0.990    68 H    0.854
    11   6 C    3.944 --     1 C    0.991    16 O    0.955    12 C    0.954
                            69 H    0.950
    12   6 C    3.944 --    17 O    0.986    13 C    0.965    11 C    0.954
                            70 H    0.953
    13   6 C    3.919 --    14 C    0.967    12 C    0.965    71 H    0.951
                            19 O    0.924
    14   6 C    3.933 --    13 C    0.967    15 C    0.960    18 O    0.959
                            72 H    0.949
    15   6 C    3.948 --    20 C    0.979    16 O    0.976    14 C    0.960
                            73 H    0.956
    16   8 O    2.068 --    15 C    0.976    11 C    0.955
    17   8 O    1.932 --    12 C    0.986    74 H    0.831
    18   8 O    2.078 --    40 C    0.982    14 C    0.959
    19   8 O    2.268 --    22 C    1.062    13 C    0.924    38 O    0.136
    20   6 C    3.958 --    21 O    1.014    15 C    0.979    76 H    0.967
                            75 H    0.966
    21   8 O    1.931 --    20 C    1.014    77 H    0.856
    22   6 C    3.890 --    38 O    1.604    23 C    1.098    19 O    1.062
    23   6 C    3.966 --    24 C    1.676    22 C    1.098    78 H    0.943
    24   6 C    3.967 --    23 C    1.676    25 C    1.170    79 H    0.951
    25   6 C    3.982 --    26 C    1.747    24 C    1.170    80 H    0.954
    26   6 C    3.975 --    25 C    1.747    27 C    1.053    81 H    0.955
    27   6 C    3.986 --    26 C    1.053    82 H    0.969    83 H    0.952
                            28 C    0.942
    28   6 C    3.949 --    29 C    1.004    39 O    0.982    84 H    0.947
                            27 C    0.942
    29   6 C    3.979 --    30 C    1.855    28 C    1.004    85 H    0.960
                            32 C    0.101
    30   6 C    3.990 --    29 C    1.855    31 C    1.102    86 H    0.960
    31   6 C    3.989 --    32 C    1.850    30 C    1.102    87 H    0.961
    32   6 C    3.988 --    31 C    1.850    33 C    1.031    88 H    0.951
                            29 C    0.101
    33   6 C    3.996 --    32 C    1.031    34 C    0.984    90 H    0.972
                            89 H    0.968
    34   6 C    3.990 --    35 C    1.008    33 C    0.984    91 H    0.977
                            92 H    0.975
    35   6 C    3.995 --    34 C    1.008    36 C    1.007    94 H    0.975
                            93 H    0.969
    36   6 C    3.997 --    37 C    1.021    35 C    1.007    95 H    0.978
                            96 H    0.977
    37   6 C    3.994 --    36 C    1.021    97 H    0.988    98 H    0.987
                            99 H    0.974
    38   8 O    1.991 --    22 C    1.604    19 O    0.136
    39   8 O    1.949 --    28 C    0.982   100 H    0.855
    40   6 C    3.926 --    18 O    0.982    41 O    0.968    45 C    0.952
                           101 H    0.949
    41   8 O    2.065 --    40 C    0.968    42 C    0.941
    42   6 C    3.928 --    46 C    0.980    43 C    0.963   102 H    0.957
                            41 O    0.941
    43   6 C    3.957 --    47 O    1.003    42 C    0.963    44 C    0.960
                           103 H    0.955
    44   6 C    3.952 --    48 O    0.991    45 C    0.963    43 C    0.960
                           104 H    0.952
    45   6 C    3.944 --    49 O    0.963    44 C    0.963    40 C    0.952
                           105 H    0.940
    46   6 C    3.955 --    56 O    1.012    42 C    0.980   107 H    0.964
                           106 H    0.964
    47   8 O    1.966 --    43 C    1.003   108 H    0.857
    48   8 O    1.992 --    44 C    0.991   109 H    0.862
    49   8 O    2.075 --    50 C    0.968    45 C    0.963
    50   6 C    3.931 --    55 O    0.973    49 O    0.968    51 C    0.951
                           110 H    0.944
    51   6 C    3.964 --    57 O    1.007    52 C    0.969    50 C    0.951
                           111 H    0.948
    52   6 C    3.954 --    58 O    0.991    53 C    0.972    51 C    0.969
                           112 H    0.957
    53   6 C    3.959 --    59 O    1.006    52 C    0.972   113 H    0.959
                            54 C    0.958
    54   6 C    3.928 --    60 C    0.980    53 C    0.958   114 H    0.952
                            55 O    0.949
    55   8 O    2.085 --    50 C    0.973    54 C    0.949
    56   8 O    1.935 --    46 C    1.012   115 H    0.864
    57   8 O    1.932 --    51 C    1.007   116 H    0.851
    58   8 O    1.940 --    52 C    0.991   117 H    0.837
    59   8 O    1.939 --    53 C    1.006   118 H    0.856
    60   6 C    3.954 --    61 O    1.000    54 C    0.980   120 H    0.965
                           119 H    0.953
    61   8 O    1.964 --    60 C    1.000   121 H    0.861
    62   1 H    0.993 --     3 C    0.960
    63   1 H    0.995 --     5 C    0.962
    64   1 H    0.866 --     7 O    0.847
    65   1 H    0.869 --     8 O    0.851
    66   1 H    0.996 --     9 C    0.968
    67   1 H    0.999 --     9 C    0.955
    68   1 H    0.894 --    10 O    0.854
    69   1 H    0.998 --    11 C    0.950
    70   1 H    0.995 --    12 C    0.953
    71   1 H    0.997 --    13 C    0.951
    72   1 H    0.993 --    14 C    0.949
    73   1 H    0.998 --    15 C    0.956
    74   1 H    0.883 --    17 O    0.831
    75   1 H    0.998 --    20 C    0.966
    76   1 H    0.994 --    20 C    0.967
    77   1 H    0.876 --    21 O    0.856
    78   1 H    0.990 --    23 C    0.943
    79   1 H    0.993 --    24 C    0.951
    80   1 H    0.991 --    25 C    0.954
    81   1 H    0.995 --    26 C    0.955
    82   1 H    0.994 --    27 C    0.969
    83   1 H    0.990 --    27 C    0.952
    84   1 H    0.994 --    28 C    0.947
    85   1 H    0.997 --    29 C    0.960
    86   1 H    0.997 --    30 C    0.960
    87   1 H    0.997 --    31 C    0.961
    88   1 H    0.997 --    32 C    0.951
    89   1 H    0.999 --    33 C    0.968
    90   1 H    0.998 --    33 C    0.972
    91   1 H    0.999 --    34 C    0.977
    92   1 H    0.998 --    34 C    0.975
    93   1 H    0.998 --    35 C    0.969
    94   1 H    1.000 --    35 C    0.975
    95   1 H    0.999 --    36 C    0.978
    96   1 H    0.999 --    36 C    0.977
    97   1 H    0.999 --    37 C    0.988
    98   1 H    0.999 --    37 C    0.987
    99   1 H    0.997 --    37 C    0.974
   100   1 H    0.895 --    39 O    0.855
   101   1 H    0.995 --    40 C    0.949
   102   1 H    0.998 --    42 C    0.957
   103   1 H    0.992 --    43 C    0.955
   104   1 H    0.993 --    44 C    0.952
   105   1 H    0.999 --    45 C    0.940
   106   1 H    0.992 --    46 C    0.964
   107   1 H    0.996 --    46 C    0.964
   108   1 H    0.899 --    47 O    0.857
   109   1 H    0.905 --    48 O    0.862
   110   1 H    1.000 --    50 C    0.944
   111   1 H    1.000 --    51 C    0.948
   112   1 H    0.996 --    52 C    0.957
   113   1 H    0.994 --    53 C    0.959
   114   1 H    0.990 --    54 C    0.952
   115   1 H    0.880 --    56 O    0.864
   116   1 H    0.874 --    57 O    0.851
   117   1 H    0.889 --    58 O    0.837
   118   1 H    0.877 --    59 O    0.856
   119   1 H    0.999 --    60 C    0.953
   120   1 H    0.993 --    60 C    0.965
   121   1 H    0.898 --    61 O    0.861
 ---------------------------------------------------------------------------

Topologies differ in total number of bonds
Writing topology from bond orders to xtbtopo.mol

molecular dipole:
                 x           y           z       tot (Debye)
 q only:       -0.665       1.768      -3.143
   full:       -1.326       1.886      -3.150       9.922
molecular quadrupole (traceless):
                xx          xy          yy          xz          yz          zz
 q only:       26.262      13.082     -21.795      -2.545       2.188      -4.467
  q+dip:       22.746      23.638     -22.765       4.149       2.466       0.019
   full:       22.085      22.924     -22.601       3.642       4.247       0.516


           -------------------------------------------------
          | TOTAL ENERGY             -199.728033660136 Eh   |
          | GRADIENT NORM               0.118369190712 Eh/α |
          | HOMO-LUMO GAP               1.067493662082 eV   |
           -------------------------------------------------

------------------------------------------------------------------------
 * finished run on 2026/06/19 at 18:52:12.059     
------------------------------------------------------------------------
 total:
 * wall-time:     0 d,  0 h,  0 min,  0.228 sec
 *  cpu-time:     0 d,  0 h,  0 min,  3.409 sec
 * ratio c/w:    14.941 speedup
 SCF:
 * wall-time:     0 d,  0 h,  0 min,  0.186 sec
 *  cpu-time:     0 d,  0 h,  0 min,  2.887 sec
 * ratio c/w:    15.554 speedup

normal termination of xtb
