      -----------------------------------------------------------      
     |                   =====================                   |     
     |                           x T B                           |     
     |                   =====================                   |     
     |                         S. Grimme                         |     
     |          Mulliken Center for Theoretical Chemistry        |     
     |                    University of Bonn                     |     
      -----------------------------------------------------------      

   * xtb version 6.7.1 (edcfbbe) compiled by 'albert@albert-system' on 2024-07-22

   xtb is free software: you can redistribute it and/or modify it under
   the terms of the GNU Lesser General Public License as published by
   the Free Software Foundation, either version 3 of the License, or
   (at your option) any later version.
   
   xtb is distributed in the hope that it will be useful,
   but WITHOUT ANY WARRANTY; without even the implied warranty of
   MERCHANTABILITY or FITNESS FOR A PARTICULAR PURPOSE.  See the
   GNU Lesser General Public License for more details.
   
   Cite this work as:
   * C. Bannwarth, E. Caldeweyher, S. Ehlert, A. Hansen, P. Pracht,
     J. Seibert, S. Spicher, S. Grimme, WIREs Comput. Mol. Sci., 2020, 11,
     e01493. DOI: 10.1002/wcms.1493
   
   for GFN2-xTB:
   * C. Bannwarth, S. Ehlert and S. Grimme., J. Chem. Theory Comput., 2019,
     15, 1652-1671. DOI: 10.1021/acs.jctc.8b01176
   for GFN1-xTB:
   * S. Grimme, C. Bannwarth, P. Shushkov, J. Chem. Theory Comput., 2017,
     13, 1989-2009. DOI: 10.1021/acs.jctc.7b00118
   for GFN0-xTB:
   * P. Pracht, E. Caldeweyher, S. Ehlert, S. Grimme, ChemRxiv, 2019, preprint.
     DOI: 10.26434/chemrxiv.8326202.v1
   for GFN-FF:
   * S. Spicher and S. Grimme, Angew. Chem. Int. Ed., 2020, 59, 15665-15673.
     DOI: 10.1002/anie.202004239
   
   for ALPB and GBSA implicit solvation:
   * S. Ehlert, M. Stahn, S. Spicher, S. Grimme, J. Chem. Theory Comput.,
     2021, 17, 4250-4261. DOI: 10.1021/acs.jctc.1c00471
   
   for ddCOSMO and CPCM-X implicit solvation:
   * M. Stahn, S. Ehlert, S. Grimme, J. Phys. Chem. A,
     2023, XX, XXXX-XXXX. DOI: 10.1021/acs.jpca.3c04382
   
   for DFT-D4:
   * E. Caldeweyher, C. Bannwarth and S. Grimme, J. Chem. Phys., 2017,
     147, 034112. DOI: 10.1063/1.4993215
   * E. Caldeweyher, S. Ehlert, A. Hansen, H. Neugebauer, S. Spicher,
     C. Bannwarth and S. Grimme, J. Chem. Phys., 2019, 150, 154122.
     DOI: 10.1063/1.5090222
   * E. Caldeweyher, J.-M. Mewes, S. Ehlert and S. Grimme, Phys. Chem. Chem. Phys.
     2020, 22, 8499-8512. DOI: 10.1039/D0CP00502A
   
   for sTDA-xTB:
   * S. Grimme and C. Bannwarth, J. Chem. Phys., 2016, 145, 054103.
     DOI: 10.1063/1.4959605
   
   in the mass-spec context:
   * V. Asgeirsson, C. Bauer and S. Grimme, Chem. Sci., 2017, 8, 4879.
     DOI: 10.1039/c7sc00601b
   * J. Koopman and S. Grimme, ACS Omega 2019, 4, 12, 15120-15133.
     DOI: 10.1021/acsomega.9b02011
   
   for metadynamics refer to:
   * S. Grimme, J. Chem. Theory Comput., 2019, 155, 2847-2862
     DOI: 10.1021/acs.jctc.9b00143
   
   for SPH calculations refer to:
   * S. Spicher and S. Grimme, J. Chem. Theory Comput., 2021, 17, 1701-1714
     DOI: 10.1021/acs.jctc.0c01306
   
   for ONIOM refer to:
   * C. Plett, A. Katbashev, S. Ehlert, S. Grimme, M. Bursch,
     Phys. Chem. Chem. Phys., 2023, 25, 17860-17868. DOI: 10.1039/D3CP02178E
   
   for DIPRO refer to:
   * J. Kohn, N. Gildemeister, S. Grimme, D. Fazzi, A. Hansen,
     J. Chem. Phys., 2023, just accepted.
   
   for PTB refer to:
   * S. Grimme, M. Mueller, A. Hansen, J. Chem. Phys., 2023, 158, 124111.
     DOI: 10.1063/5.0137838
   
   with help from (in alphabetical order)
   P. Atkinson, C. Bannwarth, F. Bohle, G. Brandenburg, E. Caldeweyher
   M. Checinski, S. Dohm, S. Ehlert, S. Ehrlich, I. Gerasimov, C. Hölzer
   A. Katbashev, J. Kohn, J. Koopman, C. Lavigne, S. Lehtola, F. März, M. Müller,
   F. Musil, H. Neugebauer, J. Pisarek, C. Plett, P. Pracht, F. Pultar,
   J. Seibert, P. Shushkov, S. Spicher, M. Stahn, M. Steiner, T. Strunk,
   J. Stückrath, T. Rose, and J. Unsleber
   
 * started run on 2026/06/19 at 18:52:12.318     
   ID    Z sym.   atoms
    1    6 C      1-6, 9, 11-15, 20, 22-37, 40, 42-46, 50-54, 60
    2    8 O      7, 8, 10, 16-19, 21, 38, 39, 41, 47-49, 55-59, 61
    3    1 H      62-121

           -------------------------------------------------
          |                Calculation Setup                |
           -------------------------------------------------

          program call               : xtb PAPU-0067/conf02.xyz --gfn 2 --alpb octanol --chrg 0 --uhf 0 --namespace PAPU-0067/conf02_octanol
          hostname                   : cpu10
          calculation namespace      : PAPU-0067/conf02_octanol
          coordinate file            : PAPU-0067/conf02.xyz
          omp threads                :                    16


           -------------------------------------------------
          |                 G F N 2 - x T B                 |
           -------------------------------------------------

        Reference                      10.1021/acs.jctc.8b01176
      * Hamiltonian:
        H0-scaling (s, p, d)           1.850000    2.230000    2.230000
        zeta-weighting                 0.500000
      * Dispersion:
        s8                             2.700000
        a1                             0.520000
        a2                             5.000000
        s9                             5.000000
      * Repulsion:
        kExp                           1.500000    1.000000
        rExp                           1.000000
      * Coulomb:
        alpha                          2.000000
        third order                    shell-resolved
        anisotropic                    true
        a3                             3.000000
        a5                             4.000000
        cn-shift                       1.200000
        cn-exp                         4.000000
        max-rad                        5.000000

      * Solvation model:               ALPB
        Solvent                        octanol
        Parameter file                 internal GFN2-xTB/ALPB
        Dielectric constant                9.8629E+00
        Reference state                gsolv [1 M gas/solution]
        Free energy shift                  2.3397E-03 Eh       1.4682E+00 kcal/mol
        Temperature                        2.9815E+02 K
        Density                            8.3000E-01 kg/L
        Solvent mass                       1.3023E+02 g/mol
        Interaction kernel             P16
        Born radius scaling (c1)           1.5898E+00
        Born radii integrator          GBOBC
        Born offset                        0.0000E+00 a0       0.0000E+00 AA
        H-bond correction              true
        Ion screening                  false
        Surface tension                    1.0000E-05 Eh       1.5569E+01 dyn/cm
        Grid points                               230 per atom

          ...................................................
          :                      SETUP                      :
          :.................................................:
          :  # basis functions                 304          :
          :  # atomic orbitals                 304          :
          :  # shells                          182          :
          :  # electrons                       344          :
          :  max. iterations                   250          :
          :  Hamiltonian                  GFN2-xTB          :
          :  restarted?                      false          :
          :  GBSA solvation                   true          :
          :  PC potential                    false          :
          :  electronic temp.          300.0000000     K    :
          :  accuracy                    1.0000000          :
          :  -> integral cutoff          0.2500000E+02      :
          :  -> integral neglect         0.1000000E-07      :
          :  -> SCF convergence          0.1000000E-05 Eh   :
          :  -> wf. convergence          0.1000000E-03 e    :
          :  Broyden damping             0.4000000          :
          :  net charge                          0          :
          :  unpaired electrons                  0          :
          ...................................................

 iter      E             dE          RMSdq      gap      omega  full diag
   1   -201.4651691 -0.201465E+03  0.433E+00    2.34       0.0  T
   2   -201.6686092 -0.203440E+00  0.237E+00    1.31       1.0  T
   3   -201.6597098  0.889939E-02  0.978E-01    1.19       1.0  T
   4   -201.6867966 -0.270868E-01  0.281E-01    0.94       1.0  T
   5   -201.6905157 -0.371908E-02  0.115E-01    0.94       1.0  T
   6   -201.6909264 -0.410731E-03  0.585E-02    0.98       1.0  T
   7   -201.6910550 -0.128556E-03  0.254E-02    0.98       1.0  T
   8   -201.6910736 -0.186067E-04  0.106E-02    0.98       1.0  T
   9   -201.6910776 -0.397259E-05  0.426E-03    0.98       2.1  T
  10   -201.6910780 -0.446921E-06  0.236E-03    0.98       3.8  T
  11   -201.6910782 -0.152320E-06  0.139E-03    0.98       6.6  T
  12   -201.6910782 -0.656326E-07  0.494E-04    0.98      18.4  T
  13   -201.6910782 -0.768270E-08  0.240E-04    0.98      37.8  T

   *** convergence criteria satisfied after 13 iterations ***

         #    Occupation            Energy/Eh            Energy/eV
      -------------------------------------------------------------
         1        2.0000           -0.8049101             -21.9027
       ...           ...                  ...                  ...
       166        2.0000           -0.4156666             -11.3109
       167        2.0000           -0.4106175             -11.1735
       168        2.0000           -0.4097435             -11.1497
       169        2.0000           -0.4086003             -11.1186
       170        2.0000           -0.4083962             -11.1130
       171        2.0000           -0.3973391             -10.8121
       172        2.0000           -0.3719550             -10.1214 (HOMO)
       173                         -0.3358364              -9.1386 (LUMO)
       174                         -0.2553372              -6.9481
       175                         -0.2440794              -6.6417
       176                         -0.2389822              -6.5030
       177                         -0.2364174              -6.4332
       ...                                ...                  ...
       304                          0.6757787              18.3889
      -------------------------------------------------------------
                  HL-Gap            0.0361186 Eh            0.9828 eV
             Fermi-level           -0.3538957 Eh           -9.6300 eV

 SCC (total)                   0 d,  0 h,  0 min,  0.185 sec
 SCC setup                      ...        0 min,  0.002 sec (  1.299%)
 Dispersion                     ...        0 min,  0.003 sec (  1.643%)
 classical contributions        ...        0 min,  0.000 sec (  0.050%)
 integral evaluation            ...        0 min,  0.008 sec (  4.450%)
 iterations                     ...        0 min,  0.144 sec ( 77.749%)
 molecular gradient             ...        0 min,  0.027 sec ( 14.520%)
 printout                       ...        0 min,  0.000 sec (  0.268%)

         :::::::::::::::::::::::::::::::::::::::::::::::::::::
         ::                     SUMMARY                     ::
         :::::::::::::::::::::::::::::::::::::::::::::::::::::
         :: total energy            -199.732836551227 Eh    ::
         :: total w/o Gsasa/hb      -199.673112039886 Eh    ::
         :: gradient norm              0.118145154851 Eh/a0 ::
         :: HOMO-LUMO gap              0.982836241233 eV    ::
         ::.................................................::
         :: SCC energy              -201.681178055824 Eh    ::
         :: -> isotropic ES            0.493075377677 Eh    ::
         :: -> anisotropic ES         -0.016929815744 Eh    ::
         :: -> anisotropic XC          0.005862748501 Eh    ::
         :: -> dispersion             -0.153024387450 Eh    ::
         :: -> Gsolv                  -0.082919797444 Eh    ::
         ::    -> Gelec               -0.023195286103 Eh    ::
         ::    -> Gsasa               -0.023102216019 Eh    ::
         ::    -> Ghb                 -0.038961964697 Eh    ::
         ::    -> Gshift               0.002339669376 Eh    ::
         :: repulsion energy           1.948341504597 Eh    ::
         :: add. restraining           0.000000000000 Eh    ::
         :: total charge               0.000000000000 e     ::
         :::::::::::::::::::::::::::::::::::::::::::::::::::::

           -------------------------------------------------
          |                Property Printout                |
           -------------------------------------------------

    * Orbital Energies and Occupations

         #    Occupation            Energy/Eh            Energy/eV
      -------------------------------------------------------------
         1        2.0000           -0.8049101             -21.9027
       ...           ...                  ...                  ...
       160        2.0000           -0.4292368             -11.6801
       161        2.0000           -0.4283047             -11.6548
       162        2.0000           -0.4260923             -11.5946
       163        2.0000           -0.4247336             -11.5576
       164        2.0000           -0.4212688             -11.4633
       165        2.0000           -0.4193050             -11.4099
       166        2.0000           -0.4156666             -11.3109
       167        2.0000           -0.4106175             -11.1735
       168        2.0000           -0.4097435             -11.1497
       169        2.0000           -0.4086003             -11.1186
       170        2.0000           -0.4083962             -11.1130
       171        2.0000           -0.3973391             -10.8121
       172        2.0000           -0.3719550             -10.1214 (HOMO)
       173                         -0.3358364              -9.1386 (LUMO)
       174                         -0.2553372              -6.9481
       175                         -0.2440794              -6.6417
       176                         -0.2389822              -6.5030
       177                         -0.2364174              -6.4332
       178                         -0.1817588              -4.9459
       179                         -0.1471323              -4.0037
       180                         -0.1204229              -3.2769
       181                         -0.1198428              -3.2611
       182                         -0.0911663              -2.4808
       183                         -0.0838782              -2.2824
       ...                                ...                  ...
       304                          0.6757787              18.3889
      -------------------------------------------------------------
                  HL-Gap            0.0361186 Eh            0.9828 eV
             Fermi-level           -0.3538957 Eh           -9.6300 eV

     #   Z          covCN         q      C6AA      α(0)
     1   6 C        2.975    -0.037    28.908     8.819
     2   6 C        2.841     0.145    24.843     8.168
     3   6 C        2.920    -0.103    30.598     9.071
     4   6 C        2.838     0.152    24.690     8.143
     5   6 C        2.927    -0.092    30.302     9.027
     6   6 C        2.964    -0.002    28.077     8.691
     7   8 O        1.657    -0.441    21.655     6.282
     8   8 O        1.657    -0.432    21.478     6.256
     9   6 C        3.682     0.074    19.540     6.330
    10   8 O        1.652    -0.488    22.639     6.423
    11   6 C        3.746     0.107    18.892     6.200
    12   6 C        3.720     0.093    19.151     6.251
    13   6 C        3.748     0.099    19.009     6.219
    14   6 C        3.740     0.086    19.230     6.257
    15   6 C        3.743     0.093    19.120     6.238
    16   8 O        1.696    -0.330    19.527     5.966
    17   8 O        1.651    -0.501    22.913     6.462
    18   8 O        1.697    -0.331    19.553     5.970
    19   8 O        1.701    -0.313    19.214     5.918
    20   6 C        3.675     0.069    19.644     6.351
    21   8 O        1.654    -0.474    22.343     6.381
    22   6 C        2.723     0.347    21.099     7.520
    23   6 C        2.895    -0.118    30.997     9.128
    24   6 C        2.899    -0.003    28.088     8.690
    25   6 C        2.897    -0.051    29.264     8.870
    26   6 C        2.894    -0.007    28.204     8.707
    27   6 C        3.806    -0.085    22.126     6.696
    28   6 C        3.728     0.114    18.803     6.191
    29   6 C        2.895    -0.076    29.899     8.965
    30   6 C        2.899    -0.040    28.994     8.829
    31   6 C        2.899    -0.053    29.315     8.877
    32   6 C        2.895    -0.039    28.977     8.826
    33   6 C        3.805    -0.064    21.719     6.635
    34   6 C        3.801    -0.062    21.685     6.630
    35   6 C        3.800    -0.063    21.711     6.634
    36   6 C        3.799    -0.052    21.514     6.604
    37   6 C        3.751    -0.114    22.748     6.802
    38   8 O        0.857    -0.484    23.427     6.489
    39   8 O        1.651    -0.484    22.545     6.410
    40   6 C        3.630     0.231    17.362     6.000
    41   8 O        1.695    -0.349    19.871     6.018
    42   6 C        3.739     0.082    19.299     6.268
    43   6 C        3.724     0.070    19.519     6.309
    44   6 C        3.724     0.083    19.301     6.274
    45   6 C        3.748     0.085    19.224     6.254
    46   6 C        3.675     0.064    19.725     6.364
    47   8 O        1.652    -0.457    21.994     6.331
    48   8 O        1.653    -0.451    21.867     6.313
    49   8 O        1.697    -0.330    19.535     5.967
    50   6 C        3.635     0.243    17.168     5.963
    51   6 C        3.720     0.091    19.180     6.255
    52   6 C        3.720     0.090    19.200     6.258
    53   6 C        3.720     0.087    19.253     6.267
    54   6 C        3.735     0.077    19.380     6.283
    55   8 O        1.695    -0.324    19.426     5.951
    56   8 O        1.654    -0.473    22.327     6.379
    57   8 O        1.653    -0.473    22.323     6.378
    58   8 O        1.651    -0.486    22.585     6.415
    59   8 O        1.652    -0.473    22.326     6.378
    60   6 C        3.675     0.056    19.855     6.385
    61   8 O        1.652    -0.464    22.125     6.350
    62   1 H        0.926     0.077     2.012     2.218
    63   1 H        0.926     0.067     2.118     2.276
    64   1 H        0.804     0.365     0.555     1.170
    65   1 H        0.804     0.362     0.562     1.177
    66   1 H        0.924     0.064     2.154     2.295
    67   1 H        0.924     0.028     2.611     2.527
    68   1 H        0.802     0.326     0.649     1.266
    69   1 H        0.924     0.039     2.466     2.456
    70   1 H        0.923     0.067     2.114     2.274
    71   1 H        0.924     0.049     2.335     2.389
    72   1 H        0.924     0.083     1.946     2.181
    73   1 H        0.923     0.043     2.403     2.424
    74   1 H        0.803     0.342     0.607     1.224
    75   1 H        0.924     0.047     2.354     2.399
    76   1 H        0.924     0.075     2.026     2.226
    77   1 H        0.803     0.353     0.582     1.199
    78   1 H        0.926     0.098     1.799     2.098
    79   1 H        0.926     0.082     1.955     2.186
    80   1 H        0.926     0.091     1.871     2.139
    81   1 H        0.926     0.071     2.072     2.251
    82   1 H        0.924     0.074     2.044     2.236
    83   1 H        0.924     0.082     1.959     2.189
    84   1 H        0.923     0.068     2.110     2.272
    85   1 H        0.926     0.050     2.324     2.384
    86   1 H        0.926     0.054     2.267     2.355
    87   1 H        0.926     0.036     2.502     2.473
    88   1 H        0.926     0.047     2.357     2.401
    89   1 H        0.924     0.036     2.499     2.472
    90   1 H        0.924     0.057     2.236     2.338
    91   1 H        0.924     0.037     2.495     2.470
    92   1 H        0.924     0.031     2.574     2.509
    93   1 H        0.924     0.046     2.365     2.405
    94   1 H        0.924     0.015     2.806     2.619
    95   1 H        0.924     0.029     2.603     2.523
    96   1 H        0.924     0.027     2.627     2.535
    97   1 H        0.924     0.025     2.658     2.549
    98   1 H        0.924     0.032     2.552     2.498
    99   1 H        0.924     0.050     2.325     2.385
   100   1 H        0.803     0.322     0.658     1.274
   101   1 H        0.923     0.064     2.151     2.294
   102   1 H        0.923     0.048     2.347     2.396
   103   1 H        0.923     0.088     1.899     2.155
   104   1 H        0.923     0.077     2.008     2.216
   105   1 H        0.924     0.025     2.665     2.553
   106   1 H        0.924     0.083     1.945     2.181
   107   1 H        0.924     0.060     2.199     2.319
   108   1 H        0.802     0.318     0.669     1.285
   109   1 H        0.803     0.311     0.688     1.303
   110   1 H        0.924     0.008     2.919     2.672
   111   1 H        0.923     0.007     2.932     2.678
   112   1 H        0.923     0.060     2.200     2.320
   113   1 H        0.923     0.074     2.041     2.234
   114   1 H        0.923     0.094     1.845     2.124
   115   1 H        0.804     0.347     0.596     1.212
   116   1 H        0.803     0.351     0.586     1.202
   117   1 H        0.802     0.334     0.629     1.246
   118   1 H        0.803     0.352     0.585     1.201
   119   1 H        0.924     0.033     2.551     2.498
   120   1 H        0.924     0.080     1.976     2.198
   121   1 H        0.802     0.319     0.668     1.284

 Mol. C6AA /au·bohr⁶  :     135137.891762
 Mol. C8AA /au·bohr⁸  :    3034079.280641
 Mol. α(0) /au        :        547.118274


Wiberg/Mayer (AO) data.
largest (>0.10) Wiberg bond orders for each atom

 ---------------------------------------------------------------------------
     #   Z sym  total        # sym  WBO       # sym  WBO       # sym  WBO
 ---------------------------------------------------------------------------
     1   6 C    3.973 --     6 C    1.393     2 C    1.332    11 C    0.991
     2   6 C    3.943 --     3 C    1.395     1 C    1.332     7 O    1.072
     3   6 C    3.978 --     2 C    1.395     4 C    1.374    62 H    0.960
     4   6 C    3.944 --     3 C    1.374     5 C    1.362     8 O    1.081
     5   6 C    3.981 --     6 C    1.425     4 C    1.362    63 H    0.962
     6   6 C    3.986 --     5 C    1.425     1 C    1.393     9 C    1.000
     7   8 O    2.085 --     2 C    1.072    64 H    0.847
     8   8 O    2.091 --     4 C    1.081    65 H    0.851
     9   6 C    3.957 --     6 C    1.000    10 O    0.990    66 H    0.968
                            67 H    0.955
    10   8 O    1.928 --     9 C    0.990    68 H    0.854
    11   6 C    3.943 --     1 C    0.991    16 O    0.955    12 C    0.954
                            69 H    0.950
    12   6 C    3.944 --    17 O    0.986    13 C    0.965    11 C    0.954
                            70 H    0.953
    13   6 C    3.919 --    14 C    0.967    12 C    0.965    71 H    0.951
                            19 O    0.924
    14   6 C    3.933 --    13 C    0.967    15 C    0.960    18 O    0.959
                            72 H    0.949
    15   6 C    3.948 --    20 C    0.979    16 O    0.976    14 C    0.960
                            73 H    0.956
    16   8 O    2.068 --    15 C    0.976    11 C    0.955
    17   8 O    1.931 --    12 C    0.986    74 H    0.831
    18   8 O    2.078 --    40 C    0.982    14 C    0.959
    19   8 O    2.268 --    22 C    1.062    13 C    0.924    38 O    0.136
    20   6 C    3.958 --    21 O    1.014    15 C    0.979    76 H    0.967
                            75 H    0.966
    21   8 O    1.931 --    20 C    1.014    77 H    0.856
    22   6 C    3.889 --    38 O    1.605    23 C    1.098    19 O    1.062
    23   6 C    3.966 --    24 C    1.676    22 C    1.098    78 H    0.943
    24   6 C    3.967 --    23 C    1.676    25 C    1.170    79 H    0.951
    25   6 C    3.982 --    26 C    1.747    24 C    1.170    80 H    0.956
    26   6 C    3.974 --    25 C    1.747    27 C    1.054    81 H    0.955
    27   6 C    3.985 --    26 C    1.054    82 H    0.966    83 H    0.958
                            28 C    0.934
    28   6 C    3.948 --    29 C    1.008    39 O    0.991    84 H    0.938
                            27 C    0.934
    29   6 C    3.978 --    30 C    1.840    28 C    1.008    85 H    0.963
                            32 C    0.116
    30   6 C    3.988 --    29 C    1.840    31 C    1.112    86 H    0.957
    31   6 C    3.989 --    32 C    1.839    30 C    1.112    87 H    0.962
    32   6 C    3.982 --    31 C    1.839    33 C    1.032    88 H    0.963
                            29 C    0.116
    33   6 C    3.997 --    32 C    1.032    34 C    1.004    89 H    0.966
                            90 H    0.950
    34   6 C    3.995 --    35 C    1.008    33 C    1.004    92 H    0.977
                            91 H    0.976
    35   6 C    3.994 --    34 C    1.008    36 C    1.007    94 H    0.975
                            93 H    0.967
    36   6 C    3.998 --    37 C    1.021    35 C    1.007    95 H    0.978
                            96 H    0.977
    37   6 C    3.994 --    36 C    1.021    98 H    0.987    97 H    0.987
                            99 H    0.976
    38   8 O    1.991 --    22 C    1.605    19 O    0.136
    39   8 O    1.948 --    28 C    0.991   100 H    0.855
    40   6 C    3.927 --    18 O    0.982    41 O    0.968    45 C    0.953
                           101 H    0.949
    41   8 O    2.065 --    40 C    0.968    42 C    0.941
    42   6 C    3.928 --    46 C    0.980    43 C    0.963   102 H    0.957
                            41 O    0.941
    43   6 C    3.957 --    47 O    1.003    42 C    0.963    44 C    0.960
                           103 H    0.955
    44   6 C    3.953 --    48 O    0.994    45 C    0.962    43 C    0.960
                           104 H    0.954
    45   6 C    3.944 --    49 O    0.964    44 C    0.962    40 C    0.953
                           105 H    0.940
    46   6 C    3.955 --    56 O    1.012    42 C    0.980   107 H    0.964
                           106 H    0.964
    47   8 O    1.967 --    43 C    1.003   108 H    0.858
    48   8 O    1.985 --    44 C    0.994   109 H    0.864
    49   8 O    2.075 --    50 C    0.968    45 C    0.964
    50   6 C    3.931 --    55 O    0.973    49 O    0.968    51 C    0.950
                           110 H    0.943
    51   6 C    3.964 --    57 O    1.006    52 C    0.969    50 C    0.950
                           111 H    0.948
    52   6 C    3.954 --    58 O    0.991    53 C    0.972    51 C    0.969
                           112 H    0.957
    53   6 C    3.960 --    59 O    1.006    52 C    0.972   113 H    0.959
                            54 C    0.958
    54   6 C    3.928 --    60 C    0.980    53 C    0.958   114 H    0.953
                            55 O    0.950
    55   8 O    2.083 --    50 C    0.973    54 C    0.950
    56   8 O    1.935 --    46 C    1.012   115 H    0.864
    57   8 O    1.935 --    51 C    1.006   116 H    0.853
    58   8 O    1.940 --    52 C    0.991   117 H    0.837
    59   8 O    1.939 --    53 C    1.006   118 H    0.856
    60   6 C    3.955 --    61 O    1.001    54 C    0.980   120 H    0.965
                           119 H    0.954
    61   8 O    1.963 --    60 C    1.001   121 H    0.859
    62   1 H    0.993 --     3 C    0.960
    63   1 H    0.995 --     5 C    0.962
    64   1 H    0.866 --     7 O    0.847
    65   1 H    0.869 --     8 O    0.851
    66   1 H    0.996 --     9 C    0.968
    67   1 H    0.999 --     9 C    0.955
    68   1 H    0.894 --    10 O    0.854
    69   1 H    0.998 --    11 C    0.950
    70   1 H    0.995 --    12 C    0.953
    71   1 H    0.997 --    13 C    0.951
    72   1 H    0.993 --    14 C    0.949
    73   1 H    0.998 --    15 C    0.956
    74   1 H    0.883 --    17 O    0.831
    75   1 H    0.998 --    20 C    0.966
    76   1 H    0.994 --    20 C    0.967
    77   1 H    0.876 --    21 O    0.856
    78   1 H    0.990 --    23 C    0.943
    79   1 H    0.993 --    24 C    0.951
    80   1 H    0.991 --    25 C    0.956
    81   1 H    0.995 --    26 C    0.955
    82   1 H    0.993 --    27 C    0.966
    83   1 H    0.991 --    27 C    0.958
    84   1 H    0.987 --    28 C    0.938
    85   1 H    0.997 --    29 C    0.963
    86   1 H    0.997 --    30 C    0.957
    87   1 H    0.999 --    31 C    0.962
    88   1 H    0.998 --    32 C    0.963
    89   1 H    0.998 --    33 C    0.966
    90   1 H    0.990 --    33 C    0.950
    91   1 H    0.999 --    34 C    0.976
    92   1 H    0.998 --    34 C    0.977
    93   1 H    0.998 --    35 C    0.967
    94   1 H    1.000 --    35 C    0.975
    95   1 H    0.999 --    36 C    0.978
    96   1 H    0.999 --    36 C    0.977
    97   1 H    0.999 --    37 C    0.987
    98   1 H    0.999 --    37 C    0.987
    99   1 H    0.998 --    37 C    0.976
   100   1 H    0.896 --    39 O    0.855
   101   1 H    0.995 --    40 C    0.949
   102   1 H    0.998 --    42 C    0.957
   103   1 H    0.992 --    43 C    0.955
   104   1 H    0.994 --    44 C    0.954
   105   1 H    0.999 --    45 C    0.940
   106   1 H    0.992 --    46 C    0.964
   107   1 H    0.996 --    46 C    0.964
   108   1 H    0.899 --    47 O    0.858
   109   1 H    0.903 --    48 O    0.864
   110   1 H    1.000 --    50 C    0.943
   111   1 H    1.000 --    51 C    0.948
   112   1 H    0.996 --    52 C    0.957
   113   1 H    0.994 --    53 C    0.959
   114   1 H    0.990 --    54 C    0.953
   115   1 H    0.880 --    56 O    0.864
   116   1 H    0.877 --    57 O    0.853
   117   1 H    0.889 --    58 O    0.837
   118   1 H    0.876 --    59 O    0.856
   119   1 H    0.999 --    60 C    0.954
   120   1 H    0.993 --    60 C    0.965
   121   1 H    0.898 --    61 O    0.859
 ---------------------------------------------------------------------------

Topologies differ in total number of bonds
Writing topology from bond orders to xtbtopo.mol

molecular dipole:
                 x           y           z       tot (Debye)
 q only:       -0.712       1.656      -3.310
   full:       -1.413       1.796      -3.323      10.250
molecular quadrupole (traceless):
                xx          xy          yy          xz          yz          zz
 q only:       23.071      12.093     -20.977      -1.723       3.490      -2.095
  q+dip:       15.393      22.193     -19.850       5.934       1.804       4.458
   full:       16.692      22.121     -20.355       4.655       4.747       3.662


           -------------------------------------------------
          | TOTAL ENERGY             -199.732836551227 Eh   |
          | GRADIENT NORM               0.118145154851 Eh/α |
          | HOMO-LUMO GAP               0.982836241233 eV   |
           -------------------------------------------------

------------------------------------------------------------------------
 * finished run on 2026/06/19 at 18:52:12.546     
------------------------------------------------------------------------
 total:
 * wall-time:     0 d,  0 h,  0 min,  0.227 sec
 *  cpu-time:     0 d,  0 h,  0 min,  3.453 sec
 * ratio c/w:    15.188 speedup
 SCF:
 * wall-time:     0 d,  0 h,  0 min,  0.185 sec
 *  cpu-time:     0 d,  0 h,  0 min,  2.915 sec
 * ratio c/w:    15.720 speedup

normal termination of xtb
