      -----------------------------------------------------------      
     |                   =====================                   |     
     |                           x T B                           |     
     |                   =====================                   |     
     |                         S. Grimme                         |     
     |          Mulliken Center for Theoretical Chemistry        |     
     |                    University of Bonn                     |     
      -----------------------------------------------------------      

   * xtb version 6.7.1 (edcfbbe) compiled by 'albert@albert-system' on 2024-07-22

   xtb is free software: you can redistribute it and/or modify it under
   the terms of the GNU Lesser General Public License as published by
   the Free Software Foundation, either version 3 of the License, or
   (at your option) any later version.
   
   xtb is distributed in the hope that it will be useful,
   but WITHOUT ANY WARRANTY; without even the implied warranty of
   MERCHANTABILITY or FITNESS FOR A PARTICULAR PURPOSE.  See the
   GNU Lesser General Public License for more details.
   
   Cite this work as:
   * C. Bannwarth, E. Caldeweyher, S. Ehlert, A. Hansen, P. Pracht,
     J. Seibert, S. Spicher, S. Grimme, WIREs Comput. Mol. Sci., 2020, 11,
     e01493. DOI: 10.1002/wcms.1493
   
   for GFN2-xTB:
   * C. Bannwarth, S. Ehlert and S. Grimme., J. Chem. Theory Comput., 2019,
     15, 1652-1671. DOI: 10.1021/acs.jctc.8b01176
   for GFN1-xTB:
   * S. Grimme, C. Bannwarth, P. Shushkov, J. Chem. Theory Comput., 2017,
     13, 1989-2009. DOI: 10.1021/acs.jctc.7b00118
   for GFN0-xTB:
   * P. Pracht, E. Caldeweyher, S. Ehlert, S. Grimme, ChemRxiv, 2019, preprint.
     DOI: 10.26434/chemrxiv.8326202.v1
   for GFN-FF:
   * S. Spicher and S. Grimme, Angew. Chem. Int. Ed., 2020, 59, 15665-15673.
     DOI: 10.1002/anie.202004239
   
   for ALPB and GBSA implicit solvation:
   * S. Ehlert, M. Stahn, S. Spicher, S. Grimme, J. Chem. Theory Comput.,
     2021, 17, 4250-4261. DOI: 10.1021/acs.jctc.1c00471
   
   for ddCOSMO and CPCM-X implicit solvation:
   * M. Stahn, S. Ehlert, S. Grimme, J. Phys. Chem. A,
     2023, XX, XXXX-XXXX. DOI: 10.1021/acs.jpca.3c04382
   
   for DFT-D4:
   * E. Caldeweyher, C. Bannwarth and S. Grimme, J. Chem. Phys., 2017,
     147, 034112. DOI: 10.1063/1.4993215
   * E. Caldeweyher, S. Ehlert, A. Hansen, H. Neugebauer, S. Spicher,
     C. Bannwarth and S. Grimme, J. Chem. Phys., 2019, 150, 154122.
     DOI: 10.1063/1.5090222
   * E. Caldeweyher, J.-M. Mewes, S. Ehlert and S. Grimme, Phys. Chem. Chem. Phys.
     2020, 22, 8499-8512. DOI: 10.1039/D0CP00502A
   
   for sTDA-xTB:
   * S. Grimme and C. Bannwarth, J. Chem. Phys., 2016, 145, 054103.
     DOI: 10.1063/1.4959605
   
   in the mass-spec context:
   * V. Asgeirsson, C. Bauer and S. Grimme, Chem. Sci., 2017, 8, 4879.
     DOI: 10.1039/c7sc00601b
   * J. Koopman and S. Grimme, ACS Omega 2019, 4, 12, 15120-15133.
     DOI: 10.1021/acsomega.9b02011
   
   for metadynamics refer to:
   * S. Grimme, J. Chem. Theory Comput., 2019, 155, 2847-2862
     DOI: 10.1021/acs.jctc.9b00143
   
   for SPH calculations refer to:
   * S. Spicher and S. Grimme, J. Chem. Theory Comput., 2021, 17, 1701-1714
     DOI: 10.1021/acs.jctc.0c01306
   
   for ONIOM refer to:
   * C. Plett, A. Katbashev, S. Ehlert, S. Grimme, M. Bursch,
     Phys. Chem. Chem. Phys., 2023, 25, 17860-17868. DOI: 10.1039/D3CP02178E
   
   for DIPRO refer to:
   * J. Kohn, N. Gildemeister, S. Grimme, D. Fazzi, A. Hansen,
     J. Chem. Phys., 2023, just accepted.
   
   for PTB refer to:
   * S. Grimme, M. Mueller, A. Hansen, J. Chem. Phys., 2023, 158, 124111.
     DOI: 10.1063/5.0137838
   
   with help from (in alphabetical order)
   P. Atkinson, C. Bannwarth, F. Bohle, G. Brandenburg, E. Caldeweyher
   M. Checinski, S. Dohm, S. Ehlert, S. Ehrlich, I. Gerasimov, C. Hölzer
   A. Katbashev, J. Kohn, J. Koopman, C. Lavigne, S. Lehtola, F. März, M. Müller,
   F. Musil, H. Neugebauer, J. Pisarek, C. Plett, P. Pracht, F. Pultar,
   J. Seibert, P. Shushkov, S. Spicher, M. Stahn, M. Steiner, T. Strunk,
   J. Stückrath, T. Rose, and J. Unsleber
   
 * started run on 2026/06/19 at 18:52:12.072     
   ID    Z sym.   atoms
    1    6 C      1-6, 9, 11-15, 20, 22-37, 40, 42-46, 50-54, 60
    2    8 O      7, 8, 10, 16-19, 21, 38, 39, 41, 47-49, 55-59, 61
    3    1 H      62-121

           -------------------------------------------------
          |                Calculation Setup                |
           -------------------------------------------------

          program call               : xtb PAPU-0067/conf02.xyz --gfn 2 --alpb water --chrg 0 --uhf 0 --namespace PAPU-0067/conf02_water
          hostname                   : cpu10
          calculation namespace      : PAPU-0067/conf02_water
          coordinate file            : PAPU-0067/conf02.xyz
          omp threads                :                    16


           -------------------------------------------------
          |                 G F N 2 - x T B                 |
           -------------------------------------------------

        Reference                      10.1021/acs.jctc.8b01176
      * Hamiltonian:
        H0-scaling (s, p, d)           1.850000    2.230000    2.230000
        zeta-weighting                 0.500000
      * Dispersion:
        s8                             2.700000
        a1                             0.520000
        a2                             5.000000
        s9                             5.000000
      * Repulsion:
        kExp                           1.500000    1.000000
        rExp                           1.000000
      * Coulomb:
        alpha                          2.000000
        third order                    shell-resolved
        anisotropic                    true
        a3                             3.000000
        a5                             4.000000
        cn-shift                       1.200000
        cn-exp                         4.000000
        max-rad                        5.000000

      * Solvation model:               ALPB
        Solvent                        water
        Parameter file                 internal GFN2-xTB/ALPB
        Dielectric constant                8.0200E+01
        Reference state                gsolv [1 M gas/solution]
        Free energy shift                  1.0808E-03 Eh       6.7819E-01 kcal/mol
        Temperature                        2.9815E+02 K
        Density                            1.0000E+00 kg/L
        Solvent mass                       1.8000E+01 g/mol
        Interaction kernel             P16
        Born radius scaling (c1)           1.4744E+00
        Born radii integrator          GBOBC
        Born offset                        0.0000E+00 a0       0.0000E+00 AA
        H-bond correction              true
        Ion screening                  false
        Surface tension                    1.0000E-05 Eh       1.5569E+01 dyn/cm
        Grid points                               230 per atom

          ...................................................
          :                      SETUP                      :
          :.................................................:
          :  # basis functions                 304          :
          :  # atomic orbitals                 304          :
          :  # shells                          182          :
          :  # electrons                       344          :
          :  max. iterations                   250          :
          :  Hamiltonian                  GFN2-xTB          :
          :  restarted?                      false          :
          :  GBSA solvation                   true          :
          :  PC potential                    false          :
          :  electronic temp.          300.0000000     K    :
          :  accuracy                    1.0000000          :
          :  -> integral cutoff          0.2500000E+02      :
          :  -> integral neglect         0.1000000E-07      :
          :  -> SCF convergence          0.1000000E-05 Eh   :
          :  -> wf. convergence          0.1000000E-03 e    :
          :  Broyden damping             0.4000000          :
          :  net charge                          0          :
          :  unpaired electrons                  0          :
          ...................................................

 iter      E             dE          RMSdq      gap      omega  full diag
   1   -201.4556009 -0.201456E+03  0.437E+00    2.48       0.0  T
   2   -201.6552725 -0.199672E+00  0.237E+00    1.63       1.0  T
   3   -201.6447727  0.104998E-01  0.956E-01    1.48       1.0  T
   4   -201.6719265 -0.271538E-01  0.310E-01    1.24       1.0  T
   5   -201.6765262 -0.459971E-02  0.123E-01    1.23       1.0  T
   6   -201.6769019 -0.375646E-03  0.641E-02    1.26       1.0  T
   7   -201.6770418 -0.139981E-03  0.281E-02    1.27       1.0  T
   8   -201.6770654 -0.236132E-04  0.131E-02    1.27       1.0  T
   9   -201.6770709 -0.545605E-05  0.552E-03    1.27       1.6  T
  10   -201.6770716 -0.673974E-06  0.307E-03    1.27       3.0  T
  11   -201.6770718 -0.212728E-06  0.182E-03    1.27       5.0  T
  12   -201.6770719 -0.136931E-06  0.640E-04    1.27      14.2  T
  13   -201.6770719 -0.140781E-07  0.314E-04    1.27      29.0  T

   *** convergence criteria satisfied after 13 iterations ***

         #    Occupation            Energy/Eh            Energy/eV
      -------------------------------------------------------------
         1        2.0000           -0.7878005             -21.4371
       ...           ...                  ...                  ...
       166        2.0000           -0.4106206             -11.1736
       167        2.0000           -0.4076557             -11.0929
       168        2.0000           -0.4027686             -10.9599
       169        2.0000           -0.3992428             -10.8639
       170        2.0000           -0.3989546             -10.8561
       171        2.0000           -0.3889449             -10.5837
       172        2.0000           -0.3660362              -9.9604 (HOMO)
       173                         -0.3194611              -8.6930 (LUMO)
       174                         -0.2390309              -6.5044
       175                         -0.2360646              -6.4236
       176                         -0.2328230              -6.3354
       177                         -0.2282366              -6.2106
       ...                                ...                  ...
       304                          0.6820261              18.5589
      -------------------------------------------------------------
                  HL-Gap            0.0465750 Eh            1.2674 eV
             Fermi-level           -0.3427487 Eh           -9.3267 eV

 SCC (total)                   0 d,  0 h,  0 min,  0.184 sec
 SCC setup                      ...        0 min,  0.003 sec (  1.494%)
 Dispersion                     ...        0 min,  0.003 sec (  1.696%)
 classical contributions        ...        0 min,  0.000 sec (  0.087%)
 integral evaluation            ...        0 min,  0.008 sec (  4.303%)
 iterations                     ...        0 min,  0.142 sec ( 77.211%)
 molecular gradient             ...        0 min,  0.026 sec ( 14.334%)
 printout                       ...        0 min,  0.002 sec (  0.855%)

         :::::::::::::::::::::::::::::::::::::::::::::::::::::
         ::                     SUMMARY                     ::
         :::::::::::::::::::::::::::::::::::::::::::::::::::::
         :: total energy            -199.718830268173 Eh    ::
         :: total w/o Gsasa/hb      -199.693545988013 Eh    ::
         :: gradient norm              0.113242356874 Eh/a0 ::
         :: HOMO-LUMO gap              1.267370844712 eV    ::
         ::.................................................::
         :: SCC energy              -201.667171772770 Eh    ::
         :: -> isotropic ES            0.514611174384 Eh    ::
         :: -> anisotropic ES         -0.016152485184 Eh    ::
         :: -> anisotropic XC          0.006616999287 Eh    ::
         :: -> dispersion             -0.152901914096 Eh    ::
         :: -> Gsolv                  -0.073070640260 Eh    ::
         ::    -> Gelec               -0.047786360099 Eh    ::
         ::    -> Gsasa                0.008394334002 Eh    ::
         ::    -> Ghb                 -0.034759373860 Eh    ::
         ::    -> Gshift               0.001080759698 Eh    ::
         :: repulsion energy           1.948341504597 Eh    ::
         :: add. restraining           0.000000000000 Eh    ::
         :: total charge              -0.000000000000 e     ::
         :::::::::::::::::::::::::::::::::::::::::::::::::::::

           -------------------------------------------------
          |                Property Printout                |
           -------------------------------------------------

    * Orbital Energies and Occupations

         #    Occupation            Energy/Eh            Energy/eV
      -------------------------------------------------------------
         1        2.0000           -0.7878005             -21.4371
       ...           ...                  ...                  ...
       160        2.0000           -0.4215257             -11.4703
       161        2.0000           -0.4208514             -11.4519
       162        2.0000           -0.4198699             -11.4252
       163        2.0000           -0.4174350             -11.3590
       164        2.0000           -0.4134815             -11.2514
       165        2.0000           -0.4122118             -11.2169
       166        2.0000           -0.4106206             -11.1736
       167        2.0000           -0.4076557             -11.0929
       168        2.0000           -0.4027686             -10.9599
       169        2.0000           -0.3992428             -10.8639
       170        2.0000           -0.3989546             -10.8561
       171        2.0000           -0.3889449             -10.5837
       172        2.0000           -0.3660362              -9.9604 (HOMO)
       173                         -0.3194611              -8.6930 (LUMO)
       174                         -0.2390309              -6.5044
       175                         -0.2360646              -6.4236
       176                         -0.2328230              -6.3354
       177                         -0.2282366              -6.2106
       178                         -0.1649987              -4.4898
       179                         -0.1410510              -3.8382
       180                         -0.1121061              -3.0506
       181                         -0.1058433              -2.8801
       182                         -0.0773453              -2.1047
       183                         -0.0686004              -1.8667
       ...                                ...                  ...
       304                          0.6820261              18.5589
      -------------------------------------------------------------
                  HL-Gap            0.0465750 Eh            1.2674 eV
             Fermi-level           -0.3427487 Eh           -9.3267 eV

     #   Z          covCN         q      C6AA      α(0)
     1   6 C        2.975    -0.035    28.869     8.813
     2   6 C        2.841     0.142    24.909     8.179
     3   6 C        2.920    -0.099    30.497     9.056
     4   6 C        2.838     0.147    24.795     8.160
     5   6 C        2.927    -0.088    30.213     9.014
     6   6 C        2.964    -0.003    28.093     8.694
     7   8 O        1.657    -0.451    21.855     6.311
     8   8 O        1.657    -0.450    21.847     6.310
     9   6 C        3.682     0.077    19.495     6.323
    10   8 O        1.652    -0.499    22.876     6.456
    11   6 C        3.746     0.108    18.869     6.196
    12   6 C        3.720     0.098    19.077     6.238
    13   6 C        3.748     0.103    18.949     6.209
    14   6 C        3.740     0.092    19.130     6.240
    15   6 C        3.743     0.098    19.040     6.225
    16   8 O        1.696    -0.338    19.664     5.987
    17   8 O        1.651    -0.505    22.999     6.474
    18   8 O        1.697    -0.341    19.718     5.995
    19   8 O        1.701    -0.304    19.056     5.894
    20   6 C        3.675     0.074    19.569     6.338
    21   8 O        1.654    -0.494    22.771     6.442
    22   6 C        2.723     0.352    21.027     7.507
    23   6 C        2.895    -0.106    30.670     9.080
    24   6 C        2.899     0.002    27.984     8.674
    25   6 C        2.897    -0.044    29.080     8.842
    26   6 C        2.894    -0.006    28.178     8.703
    27   6 C        3.806    -0.080    22.026     6.681
    28   6 C        3.728     0.117    18.757     6.183
    29   6 C        2.895    -0.068    29.698     8.935
    30   6 C        2.899    -0.038    28.955     8.823
    31   6 C        2.899    -0.050    29.243     8.866
    32   6 C        2.895    -0.039    28.963     8.824
    33   6 C        3.805    -0.062    21.693     6.631
    34   6 C        3.801    -0.059    21.642     6.624
    35   6 C        3.800    -0.061    21.669     6.628
    36   6 C        3.799    -0.052    21.505     6.603
    37   6 C        3.751    -0.109    22.641     6.786
    38   8 O        0.857    -0.494    23.644     6.519
    39   8 O        1.651    -0.494    22.756     6.440
    40   6 C        3.630     0.236    17.290     5.988
    41   8 O        1.695    -0.352    19.925     6.027
    42   6 C        3.739     0.089    19.179     6.249
    43   6 C        3.724     0.080    19.350     6.282
    44   6 C        3.724     0.092    19.157     6.250
    45   6 C        3.748     0.088    19.189     6.248
    46   6 C        3.675     0.068    19.666     6.354
    47   8 O        1.652    -0.463    22.109     6.347
    48   8 O        1.653    -0.462    22.096     6.346
    49   8 O        1.697    -0.344    19.775     6.004
    50   6 C        3.635     0.240    17.211     5.970
    51   6 C        3.720     0.093    19.151     6.250
    52   6 C        3.720     0.095    19.121     6.245
    53   6 C        3.720     0.092    19.159     6.252
    54   6 C        3.735     0.084    19.262     6.264
    55   8 O        1.695    -0.340    19.705     5.993
    56   8 O        1.654    -0.489    22.649     6.424
    57   8 O        1.653    -0.482    22.501     6.403
    58   8 O        1.651    -0.487    22.610     6.419
    59   8 O        1.652    -0.489    22.667     6.427
    60   6 C        3.675     0.059    19.809     6.377
    61   8 O        1.652    -0.470    22.252     6.368
    62   1 H        0.926     0.074     2.041     2.234
    63   1 H        0.926     0.064     2.155     2.295
    64   1 H        0.804     0.382     0.520     1.132
    65   1 H        0.804     0.379     0.524     1.137
    66   1 H        0.924     0.060     2.203     2.321
    67   1 H        0.924     0.028     2.610     2.526
    68   1 H        0.802     0.330     0.638     1.255
    69   1 H        0.924     0.039     2.460     2.453
    70   1 H        0.923     0.065     2.141     2.288
    71   1 H        0.924     0.052     2.293     2.368
    72   1 H        0.924     0.082     1.954     2.186
    73   1 H        0.923     0.042     2.420     2.433
    74   1 H        0.803     0.345     0.601     1.218
    75   1 H        0.924     0.047     2.355     2.400
    76   1 H        0.924     0.071     2.074     2.252
    77   1 H        0.803     0.364     0.556     1.171
    78   1 H        0.926     0.106     1.731     2.057
    79   1 H        0.926     0.082     1.954     2.186
    80   1 H        0.926     0.080     1.974     2.197
    81   1 H        0.926     0.076     2.022     2.224
    82   1 H        0.924     0.069     2.096     2.264
    83   1 H        0.924     0.073     2.048     2.238
    84   1 H        0.923     0.060     2.197     2.318
    85   1 H        0.926     0.050     2.317     2.380
    86   1 H        0.926     0.050     2.317     2.380
    87   1 H        0.926     0.034     2.525     2.485
    88   1 H        0.926     0.041     2.431     2.438
    89   1 H        0.924     0.038     2.482     2.464
    90   1 H        0.924     0.054     2.274     2.358
    91   1 H        0.924     0.033     2.549     2.497
    92   1 H        0.924     0.028     2.618     2.530
    93   1 H        0.924     0.045     2.386     2.416
    94   1 H        0.924     0.017     2.774     2.605
    95   1 H        0.924     0.025     2.652     2.547
    96   1 H        0.924     0.025     2.663     2.552
    97   1 H        0.924     0.026     2.644     2.543
    98   1 H        0.924     0.030     2.594     2.518
    99   1 H        0.924     0.047     2.363     2.404
   100   1 H        0.803     0.325     0.650     1.267
   101   1 H        0.923     0.059     2.217     2.328
   102   1 H        0.923     0.044     2.392     2.419
   103   1 H        0.923     0.079     1.987     2.204
   104   1 H        0.923     0.066     2.128     2.281
   105   1 H        0.924     0.039     2.458     2.452
   106   1 H        0.924     0.081     1.969     2.194
   107   1 H        0.924     0.061     2.185     2.311
   108   1 H        0.802     0.329     0.641     1.258
   109   1 H        0.803     0.331     0.636     1.253
   110   1 H        0.924     0.029     2.596     2.520
   111   1 H        0.923     0.018     2.768     2.602
   112   1 H        0.923     0.054     2.272     2.357
   113   1 H        0.923     0.063     2.165     2.301
   114   1 H        0.923     0.082     1.962     2.190
   115   1 H        0.804     0.350     0.589     1.205
   116   1 H        0.803     0.347     0.595     1.212
   117   1 H        0.802     0.340     0.612     1.229
   118   1 H        0.803     0.362     0.561     1.176
   119   1 H        0.924     0.045     2.382     2.413
   120   1 H        0.924     0.075     2.030     2.228
   121   1 H        0.802     0.325     0.652     1.268

 Mol. C6AA /au·bohr⁶  :     135269.859443
 Mol. C8AA /au·bohr⁸  :    3035728.983843
 Mol. α(0) /au        :        547.332996


Wiberg/Mayer (AO) data.
largest (>0.10) Wiberg bond orders for each atom

 ---------------------------------------------------------------------------
     #   Z sym  total        # sym  WBO       # sym  WBO       # sym  WBO
 ---------------------------------------------------------------------------
     1   6 C    3.974 --     6 C    1.394     2 C    1.331    11 C    0.991
     2   6 C    3.945 --     3 C    1.394     1 C    1.331     7 O    1.076
     3   6 C    3.978 --     2 C    1.394     4 C    1.375    62 H    0.961
     4   6 C    3.944 --     3 C    1.375     5 C    1.362     8 O    1.079
     5   6 C    3.982 --     6 C    1.424     4 C    1.362    63 H    0.962
     6   6 C    3.987 --     5 C    1.424     1 C    1.394     9 C    1.000
     7   8 O    2.078 --     2 C    1.076    64 H    0.834
     8   8 O    2.076 --     4 C    1.079    65 H    0.838
     9   6 C    3.955 --     6 C    1.000    10 O    0.988    66 H    0.968
                            67 H    0.955
    10   8 O    1.921 --     9 C    0.988    68 H    0.850
    11   6 C    3.943 --     1 C    0.991    12 C    0.954    16 O    0.954
                            69 H    0.950
    12   6 C    3.945 --    17 O    0.985    13 C    0.965    11 C    0.954
                            70 H    0.954
    13   6 C    3.923 --    14 C    0.968    12 C    0.965    71 H    0.951
                            19 O    0.927
    14   6 C    3.933 --    13 C    0.968    15 C    0.961    18 O    0.957
                            72 H    0.949
    15   6 C    3.948 --    20 C    0.980    16 O    0.974    14 C    0.961
                            73 H    0.956
    16   8 O    2.064 --    15 C    0.974    11 C    0.954
    17   8 O    1.930 --    12 C    0.985    74 H    0.828
    18   8 O    2.073 --    40 C    0.979    14 C    0.957
    19   8 O    2.276 --    22 C    1.066    13 C    0.927    38 O    0.136
    20   6 C    3.957 --    21 O    1.011    15 C    0.980    76 H    0.967
                            75 H    0.966
    21   8 O    1.919 --    20 C    1.011    77 H    0.848
    22   6 C    3.888 --    38 O    1.600    23 C    1.097    19 O    1.066
    23   6 C    3.967 --    24 C    1.682    22 C    1.097    78 H    0.942
    24   6 C    3.968 --    23 C    1.682    25 C    1.166    79 H    0.951
    25   6 C    3.985 --    26 C    1.756    24 C    1.166    80 H    0.958
    26   6 C    3.975 --    25 C    1.756    27 C    1.050    81 H    0.954
    27   6 C    3.987 --    26 C    1.050    82 H    0.967    83 H    0.960
                            28 C    0.939
    28   6 C    3.948 --    29 C    1.008    39 O    0.988    84 H    0.939
                            27 C    0.939
    29   6 C    3.979 --    30 C    1.841    28 C    1.008    85 H    0.963
                            32 C    0.117
    30   6 C    3.989 --    29 C    1.841    31 C    1.111    86 H    0.958
    31   6 C    3.990 --    32 C    1.840    30 C    1.111    87 H    0.962
    32   6 C    3.983 --    31 C    1.840    33 C    1.031    88 H    0.964
                            29 C    0.117
    33   6 C    3.997 --    32 C    1.031    34 C    1.004    89 H    0.966
                            90 H    0.951
    34   6 C    3.996 --    35 C    1.008    33 C    1.004    92 H    0.977
                            91 H    0.976
    35   6 C    3.994 --    34 C    1.008    36 C    1.007    94 H    0.975
                            93 H    0.967
    36   6 C    3.998 --    37 C    1.021    35 C    1.007    95 H    0.978
                            96 H    0.978
    37   6 C    3.995 --    36 C    1.021    98 H    0.987    97 H    0.987
                            99 H    0.976
    38   8 O    1.986 --    22 C    1.600    19 O    0.136
    39   8 O    1.940 --    28 C    0.988   100 H    0.853
    40   6 C    3.925 --    18 O    0.979    41 O    0.968    45 C    0.953
                           101 H    0.950
    41   8 O    2.063 --    40 C    0.968    42 C    0.940
    42   6 C    3.928 --    46 C    0.982    43 C    0.963   102 H    0.958
                            41 O    0.940
    43   6 C    3.960 --    47 O    1.005    42 C    0.963    44 C    0.960
                           103 H    0.957
    44   6 C    3.956 --    48 O    0.996    45 C    0.961    43 C    0.960
                           104 H    0.956
    45   6 C    3.939 --    44 C    0.961    49 O    0.959    40 C    0.953
                           105 H    0.939
    46   6 C    3.952 --    56 O    1.007    42 C    0.982   106 H    0.965
                           107 H    0.964
    47   8 O    1.962 --    43 C    1.005   108 H    0.851
    48   8 O    1.977 --    44 C    0.996   109 H    0.853
    49   8 O    2.069 --    50 C    0.968    45 C    0.959
    50   6 C    3.925 --    49 O    0.968    55 O    0.968    51 C    0.951
                           110 H    0.942
    51   6 C    3.961 --    57 O    1.001    52 C    0.969    50 C    0.951
                           111 H    0.948
    52   6 C    3.957 --    58 O    0.993    53 C    0.972    51 C    0.969
                           112 H    0.957
    53   6 C    3.959 --    59 O    1.004    52 C    0.972   113 H    0.961
                            54 C    0.958
    54   6 C    3.927 --    60 C    0.979    53 C    0.958   114 H    0.955
                            55 O    0.948
    55   8 O    2.076 --    50 C    0.968    54 C    0.948
    56   8 O    1.927 --    46 C    1.007   115 H    0.862
    57   8 O    1.932 --    51 C    1.001   116 H    0.855
    58   8 O    1.937 --    52 C    0.993   117 H    0.833
    59   8 O    1.929 --    53 C    1.004   118 H    0.849
    60   6 C    3.954 --    61 O    1.001    54 C    0.979   120 H    0.966
                           119 H    0.953
    61   8 O    1.959 --    60 C    1.001   121 H    0.855
    62   1 H    0.994 --     3 C    0.961
    63   1 H    0.995 --     5 C    0.962
    64   1 H    0.854 --     7 O    0.834
    65   1 H    0.856 --     8 O    0.838
    66   1 H    0.996 --     9 C    0.968
    67   1 H    0.999 --     9 C    0.955
    68   1 H    0.891 --    10 O    0.850
    69   1 H    0.998 --    11 C    0.950
    70   1 H    0.996 --    12 C    0.954
    71   1 H    0.997 --    13 C    0.951
    72   1 H    0.993 --    14 C    0.949
    73   1 H    0.998 --    15 C    0.956
    74   1 H    0.881 --    17 O    0.828
    75   1 H    0.998 --    20 C    0.966
    76   1 H    0.994 --    20 C    0.967
    77   1 H    0.867 --    21 O    0.848
    78   1 H    0.989 --    23 C    0.942
    79   1 H    0.993 --    24 C    0.951
    80   1 H    0.993 --    25 C    0.958
    81   1 H    0.994 --    26 C    0.954
    82   1 H    0.994 --    27 C    0.967
    83   1 H    0.993 --    27 C    0.960
    84   1 H    0.988 --    28 C    0.939
    85   1 H    0.997 --    29 C    0.963
    86   1 H    0.997 --    30 C    0.958
    87   1 H    0.999 --    31 C    0.962
    88   1 H    0.998 --    32 C    0.964
    89   1 H    0.998 --    33 C    0.966
    90   1 H    0.990 --    33 C    0.951
    91   1 H    0.999 --    34 C    0.976
    92   1 H    0.999 --    34 C    0.977
    93   1 H    0.998 --    35 C    0.967
    94   1 H    1.000 --    35 C    0.975
    95   1 H    0.999 --    36 C    0.978
    96   1 H    0.999 --    36 C    0.978
    97   1 H    0.999 --    37 C    0.987
    98   1 H    0.999 --    37 C    0.987
    99   1 H    0.998 --    37 C    0.976
   100   1 H    0.894 --    39 O    0.853
   101   1 H    0.996 --    40 C    0.950
   102   1 H    0.998 --    42 C    0.958
   103   1 H    0.993 --    43 C    0.957
   104   1 H    0.995 --    44 C    0.956
   105   1 H    0.998 --    45 C    0.939
   106   1 H    0.993 --    46 C    0.965
   107   1 H    0.996 --    46 C    0.964
   108   1 H    0.892 --    47 O    0.851
   109   1 H    0.891 --    48 O    0.853
   110   1 H    0.999 --    50 C    0.942
   111   1 H    1.000 --    51 C    0.948
   112   1 H    0.997 --    52 C    0.957
   113   1 H    0.996 --    53 C    0.961
   114   1 H    0.992 --    54 C    0.955
   115   1 H    0.878 --    56 O    0.862
   116   1 H    0.879 --    57 O    0.855
   117   1 H    0.884 --    58 O    0.833
   118   1 H    0.869 --    59 O    0.849
   119   1 H    0.998 --    60 C    0.953
   120   1 H    0.994 --    60 C    0.966
   121   1 H    0.895 --    61 O    0.855
 ---------------------------------------------------------------------------

Topologies differ in total number of bonds
Writing topology from bond orders to xtbtopo.mol

molecular dipole:
                 x           y           z       tot (Debye)
 q only:       -0.992       1.579      -3.786
   full:       -1.621       1.748      -3.607      10.989
molecular quadrupole (traceless):
                xx          xy          yy          xz          yz          zz
 q only:       19.019      12.918     -18.463      -2.155       3.524      -0.556
  q+dip:       12.405      22.552     -17.983       5.819       1.803       5.578
   full:       13.706      22.479     -18.482       4.539       4.747       4.776


           -------------------------------------------------
          | TOTAL ENERGY             -199.718830268173 Eh   |
          | GRADIENT NORM               0.113242356874 Eh/α |
          | HOMO-LUMO GAP               1.267370844712 eV   |
           -------------------------------------------------

------------------------------------------------------------------------
 * finished run on 2026/06/19 at 18:52:12.306     
------------------------------------------------------------------------
 total:
 * wall-time:     0 d,  0 h,  0 min,  0.233 sec
 *  cpu-time:     0 d,  0 h,  0 min,  3.453 sec
 * ratio c/w:    14.794 speedup
 SCF:
 * wall-time:     0 d,  0 h,  0 min,  0.185 sec
 *  cpu-time:     0 d,  0 h,  0 min,  2.872 sec
 * ratio c/w:    15.564 speedup

normal termination of xtb
