      -----------------------------------------------------------      
     |                   =====================                   |     
     |                           x T B                           |     
     |                   =====================                   |     
     |                         S. Grimme                         |     
     |          Mulliken Center for Theoretical Chemistry        |     
     |                    University of Bonn                     |     
      -----------------------------------------------------------      

   * xtb version 6.7.1 (edcfbbe) compiled by 'albert@albert-system' on 2024-07-22

   xtb is free software: you can redistribute it and/or modify it under
   the terms of the GNU Lesser General Public License as published by
   the Free Software Foundation, either version 3 of the License, or
   (at your option) any later version.
   
   xtb is distributed in the hope that it will be useful,
   but WITHOUT ANY WARRANTY; without even the implied warranty of
   MERCHANTABILITY or FITNESS FOR A PARTICULAR PURPOSE.  See the
   GNU Lesser General Public License for more details.
   
   Cite this work as:
   * C. Bannwarth, E. Caldeweyher, S. Ehlert, A. Hansen, P. Pracht,
     J. Seibert, S. Spicher, S. Grimme, WIREs Comput. Mol. Sci., 2020, 11,
     e01493. DOI: 10.1002/wcms.1493
   
   for GFN2-xTB:
   * C. Bannwarth, S. Ehlert and S. Grimme., J. Chem. Theory Comput., 2019,
     15, 1652-1671. DOI: 10.1021/acs.jctc.8b01176
   for GFN1-xTB:
   * S. Grimme, C. Bannwarth, P. Shushkov, J. Chem. Theory Comput., 2017,
     13, 1989-2009. DOI: 10.1021/acs.jctc.7b00118
   for GFN0-xTB:
   * P. Pracht, E. Caldeweyher, S. Ehlert, S. Grimme, ChemRxiv, 2019, preprint.
     DOI: 10.26434/chemrxiv.8326202.v1
   for GFN-FF:
   * S. Spicher and S. Grimme, Angew. Chem. Int. Ed., 2020, 59, 15665-15673.
     DOI: 10.1002/anie.202004239
   
   for ALPB and GBSA implicit solvation:
   * S. Ehlert, M. Stahn, S. Spicher, S. Grimme, J. Chem. Theory Comput.,
     2021, 17, 4250-4261. DOI: 10.1021/acs.jctc.1c00471
   
   for ddCOSMO and CPCM-X implicit solvation:
   * M. Stahn, S. Ehlert, S. Grimme, J. Phys. Chem. A,
     2023, XX, XXXX-XXXX. DOI: 10.1021/acs.jpca.3c04382
   
   for DFT-D4:
   * E. Caldeweyher, C. Bannwarth and S. Grimme, J. Chem. Phys., 2017,
     147, 034112. DOI: 10.1063/1.4993215
   * E. Caldeweyher, S. Ehlert, A. Hansen, H. Neugebauer, S. Spicher,
     C. Bannwarth and S. Grimme, J. Chem. Phys., 2019, 150, 154122.
     DOI: 10.1063/1.5090222
   * E. Caldeweyher, J.-M. Mewes, S. Ehlert and S. Grimme, Phys. Chem. Chem. Phys.
     2020, 22, 8499-8512. DOI: 10.1039/D0CP00502A
   
   for sTDA-xTB:
   * S. Grimme and C. Bannwarth, J. Chem. Phys., 2016, 145, 054103.
     DOI: 10.1063/1.4959605
   
   in the mass-spec context:
   * V. Asgeirsson, C. Bauer and S. Grimme, Chem. Sci., 2017, 8, 4879.
     DOI: 10.1039/c7sc00601b
   * J. Koopman and S. Grimme, ACS Omega 2019, 4, 12, 15120-15133.
     DOI: 10.1021/acsomega.9b02011
   
   for metadynamics refer to:
   * S. Grimme, J. Chem. Theory Comput., 2019, 155, 2847-2862
     DOI: 10.1021/acs.jctc.9b00143
   
   for SPH calculations refer to:
   * S. Spicher and S. Grimme, J. Chem. Theory Comput., 2021, 17, 1701-1714
     DOI: 10.1021/acs.jctc.0c01306
   
   for ONIOM refer to:
   * C. Plett, A. Katbashev, S. Ehlert, S. Grimme, M. Bursch,
     Phys. Chem. Chem. Phys., 2023, 25, 17860-17868. DOI: 10.1039/D3CP02178E
   
   for DIPRO refer to:
   * J. Kohn, N. Gildemeister, S. Grimme, D. Fazzi, A. Hansen,
     J. Chem. Phys., 2023, just accepted.
   
   for PTB refer to:
   * S. Grimme, M. Mueller, A. Hansen, J. Chem. Phys., 2023, 158, 124111.
     DOI: 10.1063/5.0137838
   
   with help from (in alphabetical order)
   P. Atkinson, C. Bannwarth, F. Bohle, G. Brandenburg, E. Caldeweyher
   M. Checinski, S. Dohm, S. Ehlert, S. Ehrlich, I. Gerasimov, C. Hölzer
   A. Katbashev, J. Kohn, J. Koopman, C. Lavigne, S. Lehtola, F. März, M. Müller,
   F. Musil, H. Neugebauer, J. Pisarek, C. Plett, P. Pracht, F. Pultar,
   J. Seibert, P. Shushkov, S. Spicher, M. Stahn, M. Steiner, T. Strunk,
   J. Stückrath, T. Rose, and J. Unsleber
   
 * started run on 2026/06/19 at 18:52:34.822     
   ID    Z sym.   atoms
    1    6 C      1-11, 13, 18, 20, 22-25, 29, 31, 33, 34, 36-41, 43-50,
                  53-57, 59, 64-77
    2    8 O      12, 14-17, 19, 21, 26-28, 30, 32, 35, 42, 51, 52, 58, 60-63
    3    1 H      78-145

           -------------------------------------------------
          |                Calculation Setup                |
           -------------------------------------------------

          program call               : xtb PAPU-0079/conf02.xyz --gfn 2 --alpb water --chrg 0 --uhf 0 --namespace PAPU-0079/conf02_water
          hostname                   : cpu10
          calculation namespace      : PAPU-0079/conf02_water
          coordinate file            : PAPU-0079/conf02.xyz
          omp threads                :                    16


           -------------------------------------------------
          |                 G F N 2 - x T B                 |
           -------------------------------------------------

        Reference                      10.1021/acs.jctc.8b01176
      * Hamiltonian:
        H0-scaling (s, p, d)           1.850000    2.230000    2.230000
        zeta-weighting                 0.500000
      * Dispersion:
        s8                             2.700000
        a1                             0.520000
        a2                             5.000000
        s9                             5.000000
      * Repulsion:
        kExp                           1.500000    1.000000
        rExp                           1.000000
      * Coulomb:
        alpha                          2.000000
        third order                    shell-resolved
        anisotropic                    true
        a3                             3.000000
        a5                             4.000000
        cn-shift                       1.200000
        cn-exp                         4.000000
        max-rad                        5.000000

      * Solvation model:               ALPB
        Solvent                        water
        Parameter file                 internal GFN2-xTB/ALPB
        Dielectric constant                8.0200E+01
        Reference state                gsolv [1 M gas/solution]
        Free energy shift                  1.0808E-03 Eh       6.7819E-01 kcal/mol
        Temperature                        2.9815E+02 K
        Density                            1.0000E+00 kg/L
        Solvent mass                       1.8000E+01 g/mol
        Interaction kernel             P16
        Born radius scaling (c1)           1.4744E+00
        Born radii integrator          GBOBC
        Born offset                        0.0000E+00 a0       0.0000E+00 AA
        H-bond correction              true
        Ion screening                  false
        Surface tension                    1.0000E-05 Eh       1.5569E+01 dyn/cm
        Grid points                               230 per atom

          ...................................................
          :                      SETUP                      :
          :.................................................:
          :  # basis functions                 376          :
          :  # atomic orbitals                 376          :
          :  # shells                          222          :
          :  # electrons                       418          :
          :  max. iterations                   250          :
          :  Hamiltonian                  GFN2-xTB          :
          :  restarted?                      false          :
          :  GBSA solvation                   true          :
          :  PC potential                    false          :
          :  electronic temp.          300.0000000     K    :
          :  accuracy                    1.0000000          :
          :  -> integral cutoff          0.2500000E+02      :
          :  -> integral neglect         0.1000000E-07      :
          :  -> SCF convergence          0.1000000E-05 Eh   :
          :  -> wf. convergence          0.1000000E-03 e    :
          :  Broyden damping             0.4000000          :
          :  net charge                          0          :
          :  unpaired electrons                  0          :
          ...................................................

 iter      E             dE          RMSdq      gap      omega  full diag
   1   -242.4646026 -0.242465E+03  0.445E+00    2.56       0.0  T
   2   -242.6919943 -0.227392E+00  0.244E+00    2.00       1.0  T
   3   -242.6757632  0.162311E-01  0.982E-01    1.90       1.0  T
   4   -242.7121942 -0.364310E-01  0.304E-01    1.64       1.0  T
   5   -242.7177455 -0.555124E-02  0.129E-01    1.61       1.0  T
   6   -242.7184476 -0.702126E-03  0.658E-02    1.63       1.0  T
   7   -242.7186051 -0.157515E-03  0.285E-02    1.64       1.0  T
   8   -242.7186367 -0.315828E-04  0.135E-02    1.64       1.0  T
   9   -242.7186432 -0.653462E-05  0.615E-03    1.64       1.4  T
  10   -242.7186446 -0.134561E-05  0.401E-03    1.64       2.1  T
  11   -242.7186454 -0.782123E-06  0.194E-03    1.63       4.3  T
  12   -242.7186455 -0.130462E-06  0.930E-04    1.63       8.9  T
  13   -242.7186455 -0.439192E-07  0.430E-04    1.63      19.3  T

   *** convergence criteria satisfied after 13 iterations ***

         #    Occupation            Energy/Eh            Energy/eV
      -------------------------------------------------------------
         1        2.0000           -0.7783663             -21.1804
       ...           ...                  ...                  ...
       203        2.0000           -0.4024329             -10.9508
       204        2.0000           -0.3959434             -10.7742
       205        2.0000           -0.3918224             -10.6620
       206        2.0000           -0.3883343             -10.5671
       207        2.0000           -0.3876749             -10.5492
       208        2.0000           -0.3743755             -10.1873
       209        2.0000           -0.3660470              -9.9606 (HOMO)
       210                         -0.3060157              -8.3271 (LUMO)
       211                         -0.2910203              -7.9191
       212                         -0.2556685              -6.9571
       213                         -0.2485241              -6.7627
       214                         -0.2418375              -6.5807
       ...                                ...                  ...
       376                          0.7094690              19.3056
      -------------------------------------------------------------
                  HL-Gap            0.0600313 Eh            1.6335 eV
             Fermi-level           -0.3360314 Eh           -9.1439 eV

 SCC (total)                   0 d,  0 h,  0 min,  0.258 sec
 SCC setup                      ...        0 min,  0.003 sec (  1.166%)
 Dispersion                     ...        0 min,  0.004 sec (  1.689%)
 classical contributions        ...        0 min,  0.000 sec (  0.047%)
 integral evaluation            ...        0 min,  0.011 sec (  4.238%)
 iterations                     ...        0 min,  0.200 sec ( 77.233%)
 molecular gradient             ...        0 min,  0.039 sec ( 15.037%)
 printout                       ...        0 min,  0.001 sec (  0.575%)

         :::::::::::::::::::::::::::::::::::::::::::::::::::::
         ::                     SUMMARY                     ::
         :::::::::::::::::::::::::::::::::::::::::::::::::::::
         :: total energy            -240.024180158619 Eh    ::
         :: total w/o Gsasa/hb      -239.996155049031 Eh    ::
         :: gradient norm              0.120797697790 Eh/a0 ::
         :: HOMO-LUMO gap              1.633535781476 eV    ::
         ::.................................................::
         :: SCC energy              -242.701887572566 Eh    ::
         :: -> isotropic ES            0.536678207364 Eh    ::
         :: -> anisotropic ES         -0.026602666202 Eh    ::
         :: -> anisotropic XC          0.025782688580 Eh    ::
         :: -> dispersion             -0.209523586109 Eh    ::
         :: -> Gsolv                  -0.074979094078 Eh    ::
         ::    -> Gelec               -0.046953984490 Eh    ::
         ::    -> Gsasa                0.006008047328 Eh    ::
         ::    -> Ghb                 -0.035113916615 Eh    ::
         ::    -> Gshift               0.001080759698 Eh    ::
         :: repulsion energy           2.677707413947 Eh    ::
         :: add. restraining           0.000000000000 Eh    ::
         :: total charge               0.000000000000 e     ::
         :::::::::::::::::::::::::::::::::::::::::::::::::::::

           -------------------------------------------------
          |                Property Printout                |
           -------------------------------------------------

    * Orbital Energies and Occupations

         #    Occupation            Energy/Eh            Energy/eV
      -------------------------------------------------------------
         1        2.0000           -0.7783663             -21.1804
       ...           ...                  ...                  ...
       197        2.0000           -0.4157729             -11.3138
       198        2.0000           -0.4136799             -11.2568
       199        2.0000           -0.4118137             -11.2060
       200        2.0000           -0.4100271             -11.1574
       201        2.0000           -0.4093144             -11.1380
       202        2.0000           -0.4050534             -11.0221
       203        2.0000           -0.4024329             -10.9508
       204        2.0000           -0.3959434             -10.7742
       205        2.0000           -0.3918224             -10.6620
       206        2.0000           -0.3883343             -10.5671
       207        2.0000           -0.3876749             -10.5492
       208        2.0000           -0.3743755             -10.1873
       209        2.0000           -0.3660470              -9.9606 (HOMO)
       210                         -0.3060157              -8.3271 (LUMO)
       211                         -0.2910203              -7.9191
       212                         -0.2556685              -6.9571
       213                         -0.2485241              -6.7627
       214                         -0.2418375              -6.5807
       215                         -0.2356825              -6.4132
       216                         -0.2232769              -6.0757
       217                         -0.2160039              -5.8778
       218                         -0.2144550              -5.8356
       219                         -0.1957883              -5.3277
       220                         -0.1764034              -4.8002
       ...                                ...                  ...
       376                          0.7094690              19.3056
      -------------------------------------------------------------
                  HL-Gap            0.0600313 Eh            1.6335 eV
             Fermi-level           -0.3360314 Eh           -9.1439 eV

     #   Z          covCN         q      C6AA      α(0)
     1   6 C        2.841     0.142    24.896     8.177
     2   6 C        2.972    -0.042    29.034     8.838
     3   6 C        2.966     0.010    27.801     8.649
     4   6 C        2.928    -0.076    29.888     8.966
     5   6 C        2.838     0.143    24.872     8.173
     6   6 C        2.920    -0.101    30.545     9.063
     7   6 C        3.741     0.109    18.860     6.196
     8   6 C        3.718     0.101    19.028     6.231
     9   6 C        3.777     0.106    18.857     6.187
    10   6 C        3.768     0.100    18.962     6.206
    11   6 C        3.734     0.094    19.108     6.239
    12   8 O        1.695    -0.343    19.764     6.002
    13   6 C        3.681     0.073    19.558     6.333
    14   8 O        1.653    -0.512    23.146     6.495
    15   8 O        1.651    -0.480    22.466     6.398
    16   8 O        1.698    -0.327    19.474     5.958
    17   8 O        1.702    -0.304    19.059     5.894
    18   6 C        3.674     0.083    19.428     6.316
    19   8 O        1.653    -0.468    22.206     6.361
    20   6 C        3.656     0.239    17.147     5.944
    21   8 O        1.696    -0.361    20.090     6.051
    22   6 C        3.733     0.099    19.039     6.228
    23   6 C        3.721     0.080    19.360     6.284
    24   6 C        3.721     0.086    19.255     6.267
    25   6 C        3.756     0.081    19.282     6.261
    26   8 O        1.652    -0.493    22.743     6.438
    27   8 O        1.698    -0.337    19.647     5.984
    28   8 O        1.652    -0.465    22.145     6.353
    29   6 C        3.720     0.069    19.530     6.312
    30   8 O        1.703    -0.266    18.412     5.793
    31   6 C        2.740     0.355    20.975     7.499
    32   8 O        0.857    -0.458    22.869     6.412
    33   6 C        2.754     0.357    20.944     7.494
    34   6 C        2.895    -0.087    30.180     9.007
    35   8 O        0.857    -0.480    23.354     6.479
    36   6 C        2.906     0.010    27.786     8.643
    37   6 C        2.898    -0.040    29.004     8.830
    38   6 C        2.898    -0.009    28.231     8.712
    39   6 C        3.805    -0.080    22.026     6.681
    40   6 C        3.730     0.117    18.751     6.181
    41   6 C        2.894    -0.065    29.618     8.923
    42   8 O        1.651    -0.492    22.716     6.434
    43   6 C        2.899    -0.039    28.960     8.824
    44   6 C        2.898    -0.049    29.223     8.863
    45   6 C        2.895    -0.042    29.040     8.835
    46   6 C        3.805    -0.060    21.646     6.623
    47   6 C        3.802    -0.056    21.576     6.613
    48   6 C        3.800    -0.058    21.616     6.620
    49   6 C        3.799    -0.052    21.517     6.605
    50   6 C        3.751    -0.105    22.564     6.774
    51   8 O        1.656    -0.428    21.396     6.244
    52   8 O        1.657    -0.453    21.914     6.319
    53   6 C        3.652     0.239    17.170     5.951
    54   6 C        3.721     0.084    19.293     6.273
    55   6 C        3.723     0.093    19.148     6.249
    56   6 C        3.721     0.094    19.140     6.248
    57   6 C        3.741     0.101    18.983     6.216
    58   8 O        1.695    -0.366    20.185     6.066
    59   6 C        3.674     0.076    19.533     6.333
    60   8 O        1.653    -0.492    22.730     6.436
    61   8 O        1.654    -0.495    22.795     6.445
    62   8 O        1.651    -0.482    22.510     6.405
    63   8 O        1.654    -0.494    22.763     6.441
    64   6 C        2.962    -0.031    28.774     8.799
    65   6 C        2.987     0.010    27.788     8.647
    66   6 C        2.980     0.009    27.814     8.651
    67   6 C        2.981     0.013    27.724     8.637
    68   6 C        2.986     0.018    27.595     8.617
    69   6 C        2.923    -0.025    28.629     8.774
    70   6 C        2.921    -0.034    28.838     8.806
    71   6 C        2.919    -0.029    28.714     8.787
    72   6 C        2.919    -0.031    28.782     8.798
    73   6 C        2.925    -0.032    28.793     8.800
    74   6 C        2.925    -0.051    29.258     8.870
    75   6 C        2.919    -0.031    28.765     8.795
    76   6 C        2.920    -0.031    28.778     8.797
    77   6 C        2.922    -0.035    28.882     8.813
    78   1 H        0.926     0.063     2.160     2.298
    79   1 H        0.926     0.069     2.101     2.267
    80   1 H        0.923     0.060     2.194     2.317
    81   1 H        0.923     0.045     2.382     2.414
    82   1 H        0.923     0.063     2.164     2.301
    83   1 H        0.923     0.051     2.314     2.379
    84   1 H        0.923     0.050     2.316     2.380
    85   1 H        0.924     0.033     2.551     2.498
    86   1 H        0.924     0.048     2.348     2.396
    87   1 H        0.804     0.359     0.567     1.183
    88   1 H        0.802     0.336     0.624     1.241
    89   1 H        0.924     0.063     2.164     2.301
    90   1 H        0.924     0.019     2.749     2.593
    91   1 H        0.802     0.318     0.670     1.286
    92   1 H        0.923     0.060     2.198     2.319
    93   1 H        0.923     0.056     2.243     2.342
    94   1 H        0.923     0.087     1.904     2.158
    95   1 H        0.923     0.066     2.125     2.280
    96   1 H        0.924     0.065     2.141     2.288
    97   1 H        0.803     0.370     0.544     1.159
    98   1 H        0.802     0.329     0.640     1.256
    99   1 H        0.924     0.085     1.927     2.171
   100   1 H        0.924     0.095     1.835     2.118
   101   1 H        0.926     0.095     1.829     2.115
   102   1 H        0.926     0.063     2.163     2.300
   103   1 H        0.926     0.070     2.089     2.260
   104   1 H        0.926     0.070     2.083     2.257
   105   1 H        0.924     0.061     2.183     2.310
   106   1 H        0.924     0.076     2.022     2.224
   107   1 H        0.923     0.058     2.228     2.334
   108   1 H        0.926     0.045     2.385     2.415
   109   1 H        0.802     0.318     0.670     1.286
   110   1 H        0.926     0.041     2.434     2.440
   111   1 H        0.926     0.045     2.380     2.412
   112   1 H        0.926     0.032     2.560     2.502
   113   1 H        0.924     0.039     2.464     2.455
   114   1 H        0.924     0.039     2.469     2.457
   115   1 H        0.924     0.023     2.690     2.565
   116   1 H        0.924     0.036     2.508     2.476
   117   1 H        0.924     0.033     2.551     2.498
   118   1 H        0.924     0.027     2.626     2.534
   119   1 H        0.924     0.026     2.639     2.541
   120   1 H        0.924     0.026     2.640     2.541
   121   1 H        0.924     0.027     2.631     2.537
   122   1 H        0.924     0.040     2.455     2.450
   123   1 H        0.924     0.037     2.486     2.466
   124   1 H        0.803     0.341     0.611     1.228
   125   1 H        0.804     0.378     0.527     1.140
   126   1 H        0.923     0.031     2.566     2.505
   127   1 H        0.924     0.074     2.045     2.236
   128   1 H        0.923     0.037     2.495     2.470
   129   1 H        0.923     0.055     2.261     2.351
   130   1 H        0.923     0.035     2.516     2.481
   131   1 H        0.924     0.058     2.221     2.331
   132   1 H        0.924     0.053     2.285     2.364
   133   1 H        0.803     0.378     0.528     1.141
   134   1 H        0.804     0.376     0.532     1.146
   135   1 H        0.802     0.344     0.604     1.221
   136   1 H        0.803     0.361     0.563     1.178
   137   1 H        0.926     0.072     2.059     2.244
   138   1 H        0.926     0.050     2.318     2.381
   139   1 H        0.926     0.051     2.302     2.373
   140   1 H        0.926     0.050     2.325     2.384
   141   1 H        0.926     0.050     2.314     2.379
   142   1 H        0.926     0.049     2.330     2.387
   143   1 H        0.926     0.033     2.542     2.493
   144   1 H        0.926     0.046     2.364     2.404
   145   1 H        0.926     0.053     2.280     2.361

 Mol. C6AA /au·bohr⁶  :     215418.728654
 Mol. C8AA /au·bohr⁸  :    4980266.247934
 Mol. α(0) /au        :        703.384100


Wiberg/Mayer (AO) data.
largest (>0.10) Wiberg bond orders for each atom

 ---------------------------------------------------------------------------
     #   Z sym  total        # sym  WBO       # sym  WBO       # sym  WBO
 ---------------------------------------------------------------------------
     1   6 C    3.944 --     6 C    1.380     2 C    1.338    51 O    1.080
     2   6 C    3.975 --     3 C    1.387     1 C    1.338     7 C    0.991
     3   6 C    3.988 --     4 C    1.431     2 C    1.387    13 C    1.003
     4   6 C    3.983 --     3 C    1.431     5 C    1.357    78 H    0.964
     5   6 C    3.944 --     6 C    1.385     4 C    1.357    52 O    1.074
     6   6 C    3.976 --     5 C    1.385     1 C    1.380    79 H    0.962
     7   6 C    3.933 --     2 C    0.991    80 H    0.951    12 O    0.948
                             8 C    0.948
     8   6 C    3.954 --    15 O    0.998     9 C    0.968    81 H    0.958
                             7 C    0.948
     9   6 C    3.921 --     8 C    0.968    10 C    0.963    17 O    0.937
                            82 H    0.937
    10   6 C    3.938 --     9 C    0.963    11 C    0.961    16 O    0.961
                            83 H    0.942
    11   6 C    3.948 --    18 C    0.983    12 O    0.963    10 C    0.961
                            84 H    0.949
    12   8 O    2.081 --    11 C    0.963     7 C    0.948
    13   6 C    3.954 --     3 C    1.003    14 O    0.982    85 H    0.971
                            86 H    0.953
    14   8 O    1.907 --    13 C    0.982    87 H    0.857
    15   8 O    1.935 --     8 C    0.998    88 H    0.841
    16   8 O    2.088 --    20 C    0.989    10 C    0.961
    17   8 O    2.256 --    33 C    1.061     9 C    0.937    35 O    0.132
    18   6 C    3.962 --    19 O    1.010    11 C    0.983    90 H    0.960
                            89 H    0.960
    19   8 O    1.938 --    18 C    1.010    91 H    0.850
    20   6 C    3.921 --    16 O    0.989    21 O    0.954    25 C    0.953
                            92 H    0.951
    21   8 O    2.072 --    20 C    0.954    22 C    0.944
    22   6 C    3.931 --    29 C    0.983    23 C    0.960    93 H    0.957
                            21 O    0.944
    23   6 C    3.957 --    28 O    1.008    24 C    0.965    22 C    0.960
                            94 H    0.955
    24   6 C    3.958 --    26 O    0.997    23 C    0.965    25 C    0.961
                            95 H    0.959
    25   6 C    3.936 --    24 C    0.961    27 O    0.960    20 C    0.953
                            96 H    0.930
    26   8 O    1.944 --    24 C    0.997    97 H    0.834
    27   8 O    2.082 --    53 C    0.985    25 C    0.960
    28   8 O    1.968 --    23 C    1.008    98 H    0.847
    29   6 C    3.919 --    22 C    0.983   100 H    0.960    99 H    0.954
                            30 O    0.954
    30   8 O    2.298 --    31 C    1.108    29 C    0.954    32 O    0.153
    31   6 C    3.893 --    32 O    1.676    30 O    1.108    64 C    1.011
    32   8 O    2.009 --    31 C    1.676    30 O    0.153
    33   6 C    3.888 --    35 O    1.635    34 C    1.075    17 O    1.061
    34   6 C    3.960 --    36 C    1.710    33 C    1.075   101 H    0.952
                            38 C    0.110
    35   8 O    1.994 --    33 C    1.635    17 O    0.132
    36   6 C    3.974 --    34 C    1.710    37 C    1.158   102 H    0.957
    37   6 C    3.984 --    38 C    1.769    36 C    1.158   103 H    0.957
    38   6 C    3.970 --    37 C    1.769    39 C    1.046   104 H    0.956
                            34 C    0.110
    39   6 C    3.990 --    38 C    1.046   105 H    0.971   106 H    0.955
                            40 C    0.952
    40   6 C    3.945 --    41 C    1.003    42 O    0.981    39 C    0.952
                           107 H    0.945
    41   6 C    3.978 --    43 C    1.838    40 C    1.003   108 H    0.962
                            45 C    0.129
    42   8 O    1.939 --    40 C    0.981   109 H    0.853
    43   6 C    3.991 --    41 C    1.838    44 C    1.123   110 H    0.959
    44   6 C    3.988 --    45 C    1.828    43 C    1.123   111 H    0.961
    45   6 C    3.989 --    44 C    1.828    46 C    1.029   112 H    0.964
                            41 C    0.129
    46   6 C    3.995 --    45 C    1.029    47 C    0.984   114 H    0.972
                           113 H    0.971
    47   6 C    3.987 --    48 C    1.006    46 C    0.984   115 H    0.972
                           116 H    0.968
    48   6 C    3.996 --    49 C    1.006    47 C    1.006   118 H    0.977
                           117 H    0.976
    49   6 C    3.995 --    50 C    1.021    48 C    1.006   119 H    0.976
                           120 H    0.972
    50   6 C    3.996 --    49 C    1.021   123 H    0.987   121 H    0.986
                           122 H    0.985
    51   8 O    2.097 --     1 C    1.080   124 H    0.836
    52   8 O    2.069 --     5 C    1.074   125 H    0.838
    53   6 C    3.913 --    27 O    0.985    54 C    0.958   126 H    0.943
                            58 O    0.941
    54   6 C    3.956 --    62 O    1.001    55 C    0.962    53 C    0.958
                           127 H    0.956
    55   6 C    3.963 --    61 O    1.000    56 C    0.968    54 C    0.962
                           128 H    0.959
    56   6 C    3.962 --    60 O    1.000    55 C    0.968    57 C    0.968
                           129 H    0.957
    57   6 C    3.934 --    59 C    0.983    56 C    0.968   130 H    0.957
                            58 O    0.947
    58   8 O    2.074 --    57 C    0.947    53 C    0.941
    59   6 C    3.963 --    63 O    1.015    57 C    0.983   132 H    0.968
                           131 H    0.962
    60   8 O    1.936 --    56 C    1.000   133 H    0.829
    61   8 O    1.923 --    55 C    1.000   134 H    0.841
    62   8 O    1.934 --    54 C    1.001   135 H    0.846
    63   8 O    1.919 --    59 C    1.015   136 H    0.828
    64   6 C    3.979 --    69 C    1.575    65 C    1.155    31 C    1.011
    65   6 C    3.988 --    74 C    1.324    66 C    1.294    64 C    1.155
    66   6 C    3.988 --    77 C    1.329    65 C    1.294    67 C    1.152
    67   6 C    3.988 --    70 C    1.333    68 C    1.284    66 C    1.152
    68   6 C    3.989 --    73 C    1.304    67 C    1.284    69 C    1.218
    69   6 C    3.983 --    64 C    1.575    68 C    1.218   137 H    0.955
    70   6 C    3.990 --    71 C    1.508    67 C    1.333   138 H    0.961
                            73 C    0.112
    71   6 C    3.977 --    70 C    1.508    72 C    1.359   139 H    0.969
    72   6 C    3.984 --    73 C    1.520    71 C    1.359   140 H    0.969
    73   6 C    3.983 --    72 C    1.520    68 C    1.304   141 H    0.966
                            70 C    0.112
    74   6 C    3.983 --    75 C    1.506    65 C    1.324   142 H    0.951
                            77 C    0.112
    75   6 C    3.984 --    74 C    1.506    76 C    1.363   143 H    0.970
    76   6 C    3.985 --    77 C    1.508    75 C    1.363   144 H    0.969
    77   6 C    3.990 --    76 C    1.508    66 C    1.329   145 H    0.960
                            74 C    0.112
    78   1 H    0.996 --     4 C    0.964
    79   1 H    0.995 --     6 C    0.962
    80   1 H    0.996 --     7 C    0.951
    81   1 H    0.998 --     8 C    0.958
    82   1 H    0.995 --     9 C    0.937
    83   1 H    0.997 --    10 C    0.942
    84   1 H    0.997 --    11 C    0.949
    85   1 H    0.999 --    13 C    0.971
    86   1 H    0.997 --    13 C    0.953
    87   1 H    0.870 --    14 O    0.857
    88   1 H    0.887 --    15 O    0.841
    89   1 H    0.996 --    18 C    0.960
    90   1 H    0.999 --    18 C    0.960
    91   1 H    0.899 --    19 O    0.850
    92   1 H    0.996 --    20 C    0.951
    93   1 H    0.997 --    22 C    0.957
    94   1 H    0.992 --    23 C    0.955
    95   1 H    0.995 --    24 C    0.959
    96   1 H    0.996 --    25 C    0.930
    97   1 H    0.863 --    26 O    0.834
    98   1 H    0.892 --    28 O    0.847
    99   1 H    0.993 --    29 C    0.954
   100   1 H    0.990 --    29 C    0.960
   101   1 H    0.991 --    34 C    0.952
   102   1 H    0.996 --    36 C    0.957
   103   1 H    0.995 --    37 C    0.957
   104   1 H    0.995 --    38 C    0.956
   105   1 H    0.996 --    39 C    0.971
   106   1 H    0.988 --    39 C    0.955
   107   1 H    0.995 --    40 C    0.945
   108   1 H    0.998 --    41 C    0.962
   109   1 H    0.899 --    42 O    0.853
   110   1 H    0.998 --    43 C    0.959
   111   1 H    0.998 --    44 C    0.961
   112   1 H    0.999 --    45 C    0.964
   113   1 H    0.998 --    46 C    0.971
   114   1 H    0.996 --    46 C    0.972
   115   1 H    0.999 --    47 C    0.972
   116   1 H    0.999 --    47 C    0.968
   117   1 H    0.999 --    48 C    0.976
   118   1 H    0.999 --    48 C    0.977
   119   1 H    0.999 --    49 C    0.976
   120   1 H    0.999 --    49 C    0.972
   121   1 H    0.999 --    50 C    0.986
   122   1 H    0.998 --    50 C    0.985
   123   1 H    0.999 --    50 C    0.987
   124   1 H    0.884 --    51 O    0.836
   125   1 H    0.856 --    52 O    0.838
   126   1 H    0.999 --    53 C    0.943
   127   1 H    0.995 --    54 C    0.956
   128   1 H    0.999 --    55 C    0.959
   129   1 H    0.997 --    56 C    0.957
   130   1 H    0.999 --    57 C    0.957
   131   1 H    0.996 --    59 C    0.962
   132   1 H    0.997 --    59 C    0.968
   133   1 H    0.857 --    60 O    0.829
   134   1 H    0.859 --    61 O    0.841
   135   1 H    0.882 --    62 O    0.846
   136   1 H    0.869 --    63 O    0.828
   137   1 H    0.993 --    69 C    0.955
   138   1 H    0.997 --    70 C    0.961
   139   1 H    0.997 --    71 C    0.969
   140   1 H    0.997 --    72 C    0.969
   141   1 H    0.997 --    73 C    0.966
   142   1 H    0.997 --    74 C    0.951
   143   1 H    0.998 --    75 C    0.970
   144   1 H    0.997 --    76 C    0.969
   145   1 H    0.996 --    77 C    0.960
 ---------------------------------------------------------------------------

Topologies differ in total number of bonds
Writing topology from bond orders to xtbtopo.mol

molecular dipole:
                 x           y           z       tot (Debye)
 q only:       -0.247      -2.521       0.244
   full:        0.670      -3.464      -0.093       8.970
molecular quadrupole (traceless):
                xx          xy          yy          xz          yz          zz
 q only:       17.047     -29.290     -16.720       7.240      -3.856      -0.326
  q+dip:       16.392     -38.873     -23.426      10.894      -6.207       7.035
   full:       15.757     -37.625     -25.130      12.459      -2.832       9.373


           -------------------------------------------------
          | TOTAL ENERGY             -240.024180158619 Eh   |
          | GRADIENT NORM               0.120797697790 Eh/α |
          | HOMO-LUMO GAP               1.633535781476 eV   |
           -------------------------------------------------

------------------------------------------------------------------------
 * finished run on 2026/06/19 at 18:52:35.132     
------------------------------------------------------------------------
 total:
 * wall-time:     0 d,  0 h,  0 min,  0.309 sec
 *  cpu-time:     0 d,  0 h,  0 min,  4.721 sec
 * ratio c/w:    15.292 speedup
 SCF:
 * wall-time:     0 d,  0 h,  0 min,  0.259 sec
 *  cpu-time:     0 d,  0 h,  0 min,  4.105 sec
 * ratio c/w:    15.844 speedup

normal termination of xtb
