      -----------------------------------------------------------      
     |                   =====================                   |     
     |                           x T B                           |     
     |                   =====================                   |     
     |                         S. Grimme                         |     
     |          Mulliken Center for Theoretical Chemistry        |     
     |                    University of Bonn                     |     
      -----------------------------------------------------------      

   * xtb version 6.7.1 (edcfbbe) compiled by 'albert@albert-system' on 2024-07-22

   xtb is free software: you can redistribute it and/or modify it under
   the terms of the GNU Lesser General Public License as published by
   the Free Software Foundation, either version 3 of the License, or
   (at your option) any later version.
   
   xtb is distributed in the hope that it will be useful,
   but WITHOUT ANY WARRANTY; without even the implied warranty of
   MERCHANTABILITY or FITNESS FOR A PARTICULAR PURPOSE.  See the
   GNU Lesser General Public License for more details.
   
   Cite this work as:
   * C. Bannwarth, E. Caldeweyher, S. Ehlert, A. Hansen, P. Pracht,
     J. Seibert, S. Spicher, S. Grimme, WIREs Comput. Mol. Sci., 2020, 11,
     e01493. DOI: 10.1002/wcms.1493
   
   for GFN2-xTB:
   * C. Bannwarth, S. Ehlert and S. Grimme., J. Chem. Theory Comput., 2019,
     15, 1652-1671. DOI: 10.1021/acs.jctc.8b01176
   for GFN1-xTB:
   * S. Grimme, C. Bannwarth, P. Shushkov, J. Chem. Theory Comput., 2017,
     13, 1989-2009. DOI: 10.1021/acs.jctc.7b00118
   for GFN0-xTB:
   * P. Pracht, E. Caldeweyher, S. Ehlert, S. Grimme, ChemRxiv, 2019, preprint.
     DOI: 10.26434/chemrxiv.8326202.v1
   for GFN-FF:
   * S. Spicher and S. Grimme, Angew. Chem. Int. Ed., 2020, 59, 15665-15673.
     DOI: 10.1002/anie.202004239
   
   for ALPB and GBSA implicit solvation:
   * S. Ehlert, M. Stahn, S. Spicher, S. Grimme, J. Chem. Theory Comput.,
     2021, 17, 4250-4261. DOI: 10.1021/acs.jctc.1c00471
   
   for ddCOSMO and CPCM-X implicit solvation:
   * M. Stahn, S. Ehlert, S. Grimme, J. Phys. Chem. A,
     2023, XX, XXXX-XXXX. DOI: 10.1021/acs.jpca.3c04382
   
   for DFT-D4:
   * E. Caldeweyher, C. Bannwarth and S. Grimme, J. Chem. Phys., 2017,
     147, 034112. DOI: 10.1063/1.4993215
   * E. Caldeweyher, S. Ehlert, A. Hansen, H. Neugebauer, S. Spicher,
     C. Bannwarth and S. Grimme, J. Chem. Phys., 2019, 150, 154122.
     DOI: 10.1063/1.5090222
   * E. Caldeweyher, J.-M. Mewes, S. Ehlert and S. Grimme, Phys. Chem. Chem. Phys.
     2020, 22, 8499-8512. DOI: 10.1039/D0CP00502A
   
   for sTDA-xTB:
   * S. Grimme and C. Bannwarth, J. Chem. Phys., 2016, 145, 054103.
     DOI: 10.1063/1.4959605
   
   in the mass-spec context:
   * V. Asgeirsson, C. Bauer and S. Grimme, Chem. Sci., 2017, 8, 4879.
     DOI: 10.1039/c7sc00601b
   * J. Koopman and S. Grimme, ACS Omega 2019, 4, 12, 15120-15133.
     DOI: 10.1021/acsomega.9b02011
   
   for metadynamics refer to:
   * S. Grimme, J. Chem. Theory Comput., 2019, 155, 2847-2862
     DOI: 10.1021/acs.jctc.9b00143
   
   for SPH calculations refer to:
   * S. Spicher and S. Grimme, J. Chem. Theory Comput., 2021, 17, 1701-1714
     DOI: 10.1021/acs.jctc.0c01306
   
   for ONIOM refer to:
   * C. Plett, A. Katbashev, S. Ehlert, S. Grimme, M. Bursch,
     Phys. Chem. Chem. Phys., 2023, 25, 17860-17868. DOI: 10.1039/D3CP02178E
   
   for DIPRO refer to:
   * J. Kohn, N. Gildemeister, S. Grimme, D. Fazzi, A. Hansen,
     J. Chem. Phys., 2023, just accepted.
   
   for PTB refer to:
   * S. Grimme, M. Mueller, A. Hansen, J. Chem. Phys., 2023, 158, 124111.
     DOI: 10.1063/5.0137838
   
   with help from (in alphabetical order)
   P. Atkinson, C. Bannwarth, F. Bohle, G. Brandenburg, E. Caldeweyher
   M. Checinski, S. Dohm, S. Ehlert, S. Ehrlich, I. Gerasimov, C. Hölzer
   A. Katbashev, J. Kohn, J. Koopman, C. Lavigne, S. Lehtola, F. März, M. Müller,
   F. Musil, H. Neugebauer, J. Pisarek, C. Plett, P. Pracht, F. Pultar,
   J. Seibert, P. Shushkov, S. Spicher, M. Stahn, M. Steiner, T. Strunk,
   J. Stückrath, T. Rose, and J. Unsleber
   
 * started run on 2026/06/19 at 18:52:36.133     
   ID    Z sym.   atoms
    1    6 C      1-11, 13, 18, 20, 22-25, 29, 31, 33, 34, 36-41, 43-50,
                  53-57, 59, 64-77
    2    8 O      12, 14-17, 19, 21, 26-28, 30, 32, 35, 42, 51, 52, 58, 60-63
    3    1 H      78-145

           -------------------------------------------------
          |                Calculation Setup                |
           -------------------------------------------------

          program call               : xtb PAPU-0079/conf04.xyz --gfn 2 --alpb water --chrg 0 --uhf 0 --namespace PAPU-0079/conf04_water
          hostname                   : cpu10
          calculation namespace      : PAPU-0079/conf04_water
          coordinate file            : PAPU-0079/conf04.xyz
          omp threads                :                    16


           -------------------------------------------------
          |                 G F N 2 - x T B                 |
           -------------------------------------------------

        Reference                      10.1021/acs.jctc.8b01176
      * Hamiltonian:
        H0-scaling (s, p, d)           1.850000    2.230000    2.230000
        zeta-weighting                 0.500000
      * Dispersion:
        s8                             2.700000
        a1                             0.520000
        a2                             5.000000
        s9                             5.000000
      * Repulsion:
        kExp                           1.500000    1.000000
        rExp                           1.000000
      * Coulomb:
        alpha                          2.000000
        third order                    shell-resolved
        anisotropic                    true
        a3                             3.000000
        a5                             4.000000
        cn-shift                       1.200000
        cn-exp                         4.000000
        max-rad                        5.000000

      * Solvation model:               ALPB
        Solvent                        water
        Parameter file                 internal GFN2-xTB/ALPB
        Dielectric constant                8.0200E+01
        Reference state                gsolv [1 M gas/solution]
        Free energy shift                  1.0808E-03 Eh       6.7819E-01 kcal/mol
        Temperature                        2.9815E+02 K
        Density                            1.0000E+00 kg/L
        Solvent mass                       1.8000E+01 g/mol
        Interaction kernel             P16
        Born radius scaling (c1)           1.4744E+00
        Born radii integrator          GBOBC
        Born offset                        0.0000E+00 a0       0.0000E+00 AA
        H-bond correction              true
        Ion screening                  false
        Surface tension                    1.0000E-05 Eh       1.5569E+01 dyn/cm
        Grid points                               230 per atom

          ...................................................
          :                      SETUP                      :
          :.................................................:
          :  # basis functions                 376          :
          :  # atomic orbitals                 376          :
          :  # shells                          222          :
          :  # electrons                       418          :
          :  max. iterations                   250          :
          :  Hamiltonian                  GFN2-xTB          :
          :  restarted?                      false          :
          :  GBSA solvation                   true          :
          :  PC potential                    false          :
          :  electronic temp.          300.0000000     K    :
          :  accuracy                    1.0000000          :
          :  -> integral cutoff          0.2500000E+02      :
          :  -> integral neglect         0.1000000E-07      :
          :  -> SCF convergence          0.1000000E-05 Eh   :
          :  -> wf. convergence          0.1000000E-03 e    :
          :  Broyden damping             0.4000000          :
          :  net charge                          0          :
          :  unpaired electrons                  0          :
          ...................................................

 iter      E             dE          RMSdq      gap      omega  full diag
   1   -242.4702873 -0.242470E+03  0.444E+00    2.56       0.0  T
   2   -242.6969671 -0.226680E+00  0.244E+00    2.00       1.0  T
   3   -242.6808500  0.161170E-01  0.981E-01    1.90       1.0  T
   4   -242.7168540 -0.360040E-01  0.303E-01    1.63       1.0  T
   5   -242.7224462 -0.559221E-02  0.128E-01    1.60       1.0  T
   6   -242.7231460 -0.699735E-03  0.648E-02    1.63       1.0  T
   7   -242.7232972 -0.151244E-03  0.277E-02    1.63       1.0  T
   8   -242.7233273 -0.301158E-04  0.129E-02    1.63       1.0  T
   9   -242.7233330 -0.568320E-05  0.586E-03    1.63       1.4  T
  10   -242.7233343 -0.128916E-05  0.373E-03    1.63       2.2  T
  11   -242.7233350 -0.678680E-06  0.183E-03    1.63       4.5  T
  12   -242.7233351 -0.112681E-06  0.896E-04    1.63       9.3  T
  13   -242.7233351 -0.396699E-07  0.420E-04    1.63      19.8  T

   *** convergence criteria satisfied after 13 iterations ***

         #    Occupation            Energy/Eh            Energy/eV
      -------------------------------------------------------------
         1        2.0000           -0.7801863             -21.2300
       ...           ...                  ...                  ...
       203        2.0000           -0.4036842             -10.9848
       204        2.0000           -0.3967766             -10.7968
       205        2.0000           -0.3934301             -10.7058
       206        2.0000           -0.3913116             -10.6481
       207        2.0000           -0.3890932             -10.5878
       208        2.0000           -0.3775620             -10.2740
       209        2.0000           -0.3671176              -9.9898 (HOMO)
       210                         -0.3072394              -8.3604 (LUMO)
       211                         -0.2924278              -7.9574
       212                         -0.2570151              -6.9937
       213                         -0.2497426              -6.7958
       214                         -0.2422904              -6.5931
       ...                                ...                  ...
       376                          0.7080846              19.2680
      -------------------------------------------------------------
                  HL-Gap            0.0598783 Eh            1.6294 eV
             Fermi-level           -0.3371785 Eh           -9.1751 eV

 SCC (total)                   0 d,  0 h,  0 min,  0.262 sec
 SCC setup                      ...        0 min,  0.003 sec (  1.259%)
 Dispersion                     ...        0 min,  0.004 sec (  1.517%)
 classical contributions        ...        0 min,  0.000 sec (  0.061%)
 integral evaluation            ...        0 min,  0.012 sec (  4.471%)
 iterations                     ...        0 min,  0.201 sec ( 76.905%)
 molecular gradient             ...        0 min,  0.040 sec ( 15.174%)
 printout                       ...        0 min,  0.002 sec (  0.595%)

         :::::::::::::::::::::::::::::::::::::::::::::::::::::
         ::                     SUMMARY                     ::
         :::::::::::::::::::::::::::::::::::::::::::::::::::::
         :: total energy            -240.028592273674 Eh    ::
         :: total w/o Gsasa/hb      -240.004615153968 Eh    ::
         :: gradient norm              0.120648903425 Eh/a0 ::
         :: HOMO-LUMO gap              1.629370523766 eV    ::
         ::.................................................::
         :: SCC energy              -242.706251526359 Eh    ::
         :: -> isotropic ES            0.529698713497 Eh    ::
         :: -> anisotropic ES         -0.025063696719 Eh    ::
         :: -> anisotropic XC          0.026574845979 Eh    ::
         :: -> dispersion             -0.210013555800 Eh    ::
         :: -> Gsolv                  -0.068531053045 Eh    ::
         ::    -> Gelec               -0.044553933339 Eh    ::
         ::    -> Gsasa                0.006509222555 Eh    ::
         ::    -> Ghb                 -0.031567101959 Eh    ::
         ::    -> Gshift               0.001080759698 Eh    ::
         :: repulsion energy           2.677659252685 Eh    ::
         :: add. restraining           0.000000000000 Eh    ::
         :: total charge               0.000000000000 e     ::
         :::::::::::::::::::::::::::::::::::::::::::::::::::::

           -------------------------------------------------
          |                Property Printout                |
           -------------------------------------------------

    * Orbital Energies and Occupations

         #    Occupation            Energy/Eh            Energy/eV
      -------------------------------------------------------------
         1        2.0000           -0.7801863             -21.2300
       ...           ...                  ...                  ...
       197        2.0000           -0.4157444             -11.3130
       198        2.0000           -0.4132365             -11.2447
       199        2.0000           -0.4129531             -11.2370
       200        2.0000           -0.4109066             -11.1813
       201        2.0000           -0.4080769             -11.1043
       202        2.0000           -0.4057131             -11.0400
       203        2.0000           -0.4036842             -10.9848
       204        2.0000           -0.3967766             -10.7968
       205        2.0000           -0.3934301             -10.7058
       206        2.0000           -0.3913116             -10.6481
       207        2.0000           -0.3890932             -10.5878
       208        2.0000           -0.3775620             -10.2740
       209        2.0000           -0.3671176              -9.9898 (HOMO)
       210                         -0.3072394              -8.3604 (LUMO)
       211                         -0.2924278              -7.9574
       212                         -0.2570151              -6.9937
       213                         -0.2497426              -6.7958
       214                         -0.2422904              -6.5931
       215                         -0.2367223              -6.4415
       216                         -0.2269502              -6.1756
       217                         -0.2178437              -5.9278
       218                         -0.2172866              -5.9127
       219                         -0.1971529              -5.3648
       220                         -0.1775347              -4.8310
       ...                                ...                  ...
       376                          0.7080846              19.2680
      -------------------------------------------------------------
                  HL-Gap            0.0598783 Eh            1.6294 eV
             Fermi-level           -0.3371785 Eh           -9.1751 eV

     #   Z          covCN         q      C6AA      α(0)
     1   6 C        2.841     0.143    24.883     8.175
     2   6 C        2.972    -0.043    29.071     8.844
     3   6 C        2.966     0.008    27.836     8.654
     4   6 C        2.928    -0.076    29.900     8.967
     5   6 C        2.838     0.144    24.857     8.170
     6   6 C        2.920    -0.100    30.529     9.061
     7   6 C        3.739     0.104    18.949     6.211
     8   6 C        3.719     0.093    19.152     6.251
     9   6 C        3.782     0.104    18.890     6.191
    10   6 C        3.771     0.098    18.997     6.211
    11   6 C        3.734     0.094    19.114     6.240
    12   8 O        1.695    -0.343    19.755     6.001
    13   6 C        3.681     0.074    19.553     6.333
    14   8 O        1.653    -0.513    23.165     6.497
    15   8 O        1.652    -0.464    22.132     6.351
    16   8 O        1.698    -0.330    19.522     5.965
    17   8 O        1.702    -0.300    18.995     5.884
    18   6 C        3.674     0.082    19.432     6.317
    19   8 O        1.653    -0.469    22.232     6.365
    20   6 C        3.658     0.239    17.143     5.942
    21   8 O        1.696    -0.360    20.074     6.049
    22   6 C        3.733     0.099    19.040     6.228
    23   6 C        3.721     0.080    19.355     6.283
    24   6 C        3.721     0.087    19.244     6.265
    25   6 C        3.760     0.082    19.259     6.256
    26   8 O        1.652    -0.495    22.787     6.444
    27   8 O        1.698    -0.339    19.685     5.990
    28   8 O        1.652    -0.465    22.149     6.353
    29   6 C        3.720     0.070    19.526     6.311
    30   8 O        1.703    -0.266    18.409     5.793
    31   6 C        2.740     0.355    20.976     7.499
    32   8 O        0.857    -0.458    22.881     6.413
    33   6 C        2.758     0.356    20.961     7.497
    34   6 C        2.895    -0.087    30.186     9.008
    35   8 O        0.857    -0.481    23.366     6.481
    36   6 C        2.906     0.010    27.786     8.643
    37   6 C        2.898    -0.041    29.006     8.830
    38   6 C        2.898    -0.008    28.221     8.710
    39   6 C        3.805    -0.080    22.025     6.681
    40   6 C        3.730     0.118    18.747     6.181
    41   6 C        2.894    -0.065    29.626     8.924
    42   8 O        1.651    -0.492    22.726     6.435
    43   6 C        2.899    -0.038    28.953     8.822
    44   6 C        2.898    -0.050    29.233     8.865
    45   6 C        2.895    -0.042    29.033     8.834
    46   6 C        3.805    -0.060    21.647     6.623
    47   6 C        3.802    -0.056    21.581     6.614
    48   6 C        3.800    -0.058    21.616     6.620
    49   6 C        3.799    -0.053    21.525     6.606
    50   6 C        3.751    -0.105    22.567     6.775
    51   8 O        1.656    -0.428    21.409     6.246
    52   8 O        1.657    -0.454    21.925     6.321
    53   6 C        3.655     0.236    17.201     5.954
    54   6 C        3.721     0.086    19.265     6.269
    55   6 C        3.723     0.095    19.112     6.243
    56   6 C        3.722     0.086    19.257     6.267
    57   6 C        3.741     0.093    19.115     6.238
    58   8 O        1.696    -0.359    20.052     6.046
    59   6 C        3.674     0.070    19.627     6.349
    60   8 O        1.653    -0.502    22.927     6.464
    61   8 O        1.653    -0.486    22.597     6.417
    62   8 O        1.651    -0.483    22.538     6.409
    63   8 O        1.653    -0.476    22.387     6.387
    64   6 C        2.962    -0.031    28.780     8.799
    65   6 C        2.986     0.010    27.790     8.647
    66   6 C        2.980     0.009    27.812     8.651
    67   6 C        2.981     0.013    27.727     8.637
    68   6 C        2.986     0.018    27.594     8.617
    69   6 C        2.923    -0.025    28.628     8.774
    70   6 C        2.921    -0.034    28.838     8.806
    71   6 C        2.919    -0.028    28.709     8.787
    72   6 C        2.919    -0.031    28.777     8.797
    73   6 C        2.925    -0.031    28.785     8.798
    74   6 C        2.925    -0.051    29.264     8.871
    75   6 C        2.919    -0.031    28.777     8.797
    76   6 C        2.920    -0.031    28.784     8.798
    77   6 C        2.922    -0.035    28.876     8.812
    78   1 H        0.926     0.063     2.163     2.300
    79   1 H        0.926     0.068     2.109     2.271
    80   1 H        0.923     0.062     2.176     2.307
    81   1 H        0.923     0.069     2.092     2.262
    82   1 H        0.923     0.072     2.066     2.248
    83   1 H        0.923     0.053     2.287     2.365
    84   1 H        0.923     0.051     2.312     2.378
    85   1 H        0.924     0.034     2.528     2.486
    86   1 H        0.924     0.046     2.375     2.410
    87   1 H        0.804     0.360     0.565     1.180
    88   1 H        0.803     0.339     0.614     1.231
    89   1 H        0.924     0.062     2.181     2.309
    90   1 H        0.924     0.018     2.763     2.600
    91   1 H        0.802     0.320     0.666     1.282
    92   1 H        0.923     0.060     2.195     2.317
    93   1 H        0.923     0.056     2.243     2.342
    94   1 H        0.923     0.086     1.915     2.164
    95   1 H        0.923     0.065     2.136     2.286
    96   1 H        0.924     0.065     2.140     2.288
    97   1 H        0.803     0.369     0.545     1.160
    98   1 H        0.802     0.330     0.639     1.256
    99   1 H        0.924     0.085     1.928     2.171
   100   1 H        0.924     0.094     1.842     2.122
   101   1 H        0.926     0.095     1.827     2.114
   102   1 H        0.926     0.063     2.164     2.300
   103   1 H        0.926     0.070     2.086     2.258
   104   1 H        0.926     0.069     2.093     2.262
   105   1 H        0.924     0.062     2.181     2.310
   106   1 H        0.924     0.075     2.031     2.229
   107   1 H        0.923     0.057     2.236     2.338
   108   1 H        0.926     0.045     2.378     2.411
   109   1 H        0.802     0.318     0.670     1.286
   110   1 H        0.926     0.040     2.443     2.444
   111   1 H        0.926     0.047     2.356     2.400
   112   1 H        0.926     0.031     2.573     2.508
   113   1 H        0.924     0.039     2.459     2.452
   114   1 H        0.924     0.038     2.479     2.462
   115   1 H        0.924     0.023     2.693     2.566
   116   1 H        0.924     0.037     2.489     2.467
   117   1 H        0.924     0.031     2.567     2.506
   118   1 H        0.924     0.027     2.623     2.533
   119   1 H        0.924     0.026     2.639     2.540
   120   1 H        0.924     0.028     2.614     2.528
   121   1 H        0.924     0.036     2.505     2.475
   122   1 H        0.924     0.028     2.622     2.532
   123   1 H        0.924     0.040     2.450     2.448
   124   1 H        0.803     0.342     0.607     1.224
   125   1 H        0.804     0.378     0.528     1.141
   126   1 H        0.923     0.030     2.593     2.518
   127   1 H        0.924     0.069     2.099     2.266
   128   1 H        0.923     0.053     2.279     2.361
   129   1 H        0.923     0.048     2.346     2.395
   130   1 H        0.923     0.030     2.587     2.515
   131   1 H        0.924     0.081     1.972     2.196
   132   1 H        0.924     0.043     2.412     2.429
   133   1 H        0.803     0.363     0.558     1.174
   134   1 H        0.803     0.363     0.559     1.174
   135   1 H        0.802     0.341     0.609     1.227
   136   1 H        0.803     0.348     0.593     1.210
   137   1 H        0.926     0.072     2.060     2.244
   138   1 H        0.926     0.050     2.315     2.379
   139   1 H        0.926     0.051     2.302     2.373
   140   1 H        0.926     0.049     2.327     2.386
   141   1 H        0.926     0.050     2.320     2.382
   142   1 H        0.926     0.050     2.321     2.383
   143   1 H        0.926     0.034     2.528     2.486
   144   1 H        0.926     0.047     2.352     2.398
   145   1 H        0.926     0.053     2.286     2.364

 Mol. C6AA /au·bohr⁶  :     215309.572091
 Mol. C8AA /au·bohr⁸  :    4978715.222936
 Mol. α(0) /au        :        703.201327


Wiberg/Mayer (AO) data.
largest (>0.10) Wiberg bond orders for each atom

 ---------------------------------------------------------------------------
     #   Z sym  total        # sym  WBO       # sym  WBO       # sym  WBO
 ---------------------------------------------------------------------------
     1   6 C    3.944 --     6 C    1.380     2 C    1.336    51 O    1.082
     2   6 C    3.974 --     3 C    1.388     1 C    1.336     7 C    0.991
     3   6 C    3.988 --     4 C    1.431     2 C    1.388    13 C    1.003
     4   6 C    3.983 --     3 C    1.431     5 C    1.356    78 H    0.964
     5   6 C    3.943 --     6 C    1.385     4 C    1.356    52 O    1.074
     6   6 C    3.977 --     5 C    1.385     1 C    1.380    79 H    0.962
     7   6 C    3.933 --     2 C    0.991    80 H    0.950    12 O    0.947
                             8 C    0.944
     8   6 C    3.947 --    15 O    0.992     9 C    0.969    81 H    0.960
                             7 C    0.944
     9   6 C    3.921 --     8 C    0.969    10 C    0.963    17 O    0.938
                            82 H    0.937
    10   6 C    3.936 --     9 C    0.963    11 C    0.961    16 O    0.957
                            83 H    0.942
    11   6 C    3.949 --    18 C    0.982    12 O    0.964    10 C    0.961
                            84 H    0.949
    12   8 O    2.083 --    11 C    0.964     7 C    0.947
    13   6 C    3.954 --     3 C    1.003    14 O    0.983    85 H    0.971
                            86 H    0.954
    14   8 O    1.908 --    13 C    0.983    87 H    0.856
    15   8 O    1.981 --     8 C    0.992    88 H    0.863
    16   8 O    2.085 --    20 C    0.987    10 C    0.957
    17   8 O    2.257 --    33 C    1.059     9 C    0.938    35 O    0.132
    18   6 C    3.962 --    19 O    1.010    11 C    0.982    90 H    0.960
                            89 H    0.960
    19   8 O    1.938 --    18 C    1.010    91 H    0.848
    20   6 C    3.921 --    16 O    0.987    21 O    0.955    25 C    0.954
                            92 H    0.951
    21   8 O    2.072 --    20 C    0.955    22 C    0.945
    22   6 C    3.932 --    29 C    0.983    23 C    0.960    93 H    0.957
                            21 O    0.945
    23   6 C    3.957 --    28 O    1.008    24 C    0.965    22 C    0.960
                            94 H    0.955
    24   6 C    3.957 --    26 O    0.997    23 C    0.965    25 C    0.961
                            95 H    0.959
    25   6 C    3.937 --    27 O    0.961    24 C    0.961    20 C    0.954
                            96 H    0.932
    26   8 O    1.944 --    24 C    0.997    97 H    0.835
    27   8 O    2.079 --    53 C    0.981    25 C    0.961
    28   8 O    1.967 --    23 C    1.008    98 H    0.847
    29   6 C    3.919 --    22 C    0.983   100 H    0.960    99 H    0.954
                            30 O    0.954
    30   8 O    2.298 --    31 C    1.107    29 C    0.954    32 O    0.153
    31   6 C    3.893 --    32 O    1.675    30 O    1.107    64 C    1.012
    32   8 O    2.009 --    31 C    1.675    30 O    0.153
    33   6 C    3.890 --    35 O    1.637    34 C    1.077    17 O    1.059
    34   6 C    3.961 --    36 C    1.709    33 C    1.077   101 H    0.952
                            38 C    0.110
    35   8 O    1.993 --    33 C    1.637    17 O    0.132
    36   6 C    3.974 --    34 C    1.709    37 C    1.159   102 H    0.957
    37   6 C    3.985 --    38 C    1.769    36 C    1.159   103 H    0.957
    38   6 C    3.970 --    37 C    1.769    39 C    1.047   104 H    0.957
                            34 C    0.110
    39   6 C    3.990 --    38 C    1.047   105 H    0.971   106 H    0.955
                            40 C    0.951
    40   6 C    3.945 --    41 C    1.003    42 O    0.980    39 C    0.951
                           107 H    0.946
    41   6 C    3.978 --    43 C    1.838    40 C    1.003   108 H    0.962
                            45 C    0.130
    42   8 O    1.939 --    40 C    0.980   109 H    0.853
    43   6 C    3.991 --    41 C    1.838    44 C    1.123   110 H    0.959
    44   6 C    3.988 --    45 C    1.829    43 C    1.123   111 H    0.960
    45   6 C    3.989 --    44 C    1.829    46 C    1.029   112 H    0.964
                            41 C    0.130
    46   6 C    3.995 --    45 C    1.029    47 C    0.984   114 H    0.971
                           113 H    0.971
    47   6 C    3.987 --    48 C    1.006    46 C    0.984   115 H    0.973
                           116 H    0.967
    48   6 C    3.996 --    49 C    1.006    47 C    1.006   118 H    0.977
                           117 H    0.976
    49   6 C    3.995 --    50 C    1.021    48 C    1.006   119 H    0.976
                           120 H    0.972
    50   6 C    3.996 --    49 C    1.021   121 H    0.987   123 H    0.985
                           122 H    0.985
    51   8 O    2.098 --     1 C    1.082   124 H    0.834
    52   8 O    2.070 --     5 C    1.074   125 H    0.839
    53   6 C    3.916 --    27 O    0.981    54 C    0.958    58 O    0.949
                           126 H    0.943
    54   6 C    3.956 --    62 O    1.000    55 C    0.958    53 C    0.958
                           127 H    0.957
    55   6 C    3.963 --    61 O    1.008    56 C    0.965   128 H    0.961
                            54 C    0.958
    56   6 C    3.963 --    60 O    1.003    57 C    0.966    55 C    0.965
                           129 H    0.957
    57   6 C    3.935 --    59 C    0.978    56 C    0.966   130 H    0.957
                            58 O    0.951
    58   8 O    2.066 --    57 C    0.951    53 C    0.949
    59   6 C    3.957 --    63 O    1.010    57 C    0.978   132 H    0.969
                           131 H    0.965
    60   8 O    1.916 --    56 C    1.003   133 H    0.821
    61   8 O    1.936 --    55 C    1.008   134 H    0.847
    62   8 O    1.932 --    54 C    1.000   135 H    0.849
    63   8 O    1.965 --    59 C    1.010   136 H    0.837
    64   6 C    3.979 --    69 C    1.574    65 C    1.154    31 C    1.012
    65   6 C    3.988 --    74 C    1.324    66 C    1.294    64 C    1.154
    66   6 C    3.988 --    77 C    1.329    65 C    1.294    67 C    1.152
    67   6 C    3.988 --    70 C    1.333    68 C    1.284    66 C    1.152
    68   6 C    3.989 --    73 C    1.304    67 C    1.284    69 C    1.219
    69   6 C    3.982 --    64 C    1.574    68 C    1.219   137 H    0.955
    70   6 C    3.990 --    71 C    1.508    67 C    1.333   138 H    0.961
                            73 C    0.112
    71   6 C    3.977 --    70 C    1.508    72 C    1.359   139 H    0.969
    72   6 C    3.984 --    73 C    1.520    71 C    1.359   140 H    0.969
    73   6 C    3.983 --    72 C    1.520    68 C    1.304   141 H    0.966
                            70 C    0.112
    74   6 C    3.983 --    75 C    1.506    65 C    1.324   142 H    0.951
                            77 C    0.112
    75   6 C    3.984 --    74 C    1.506    76 C    1.363   143 H    0.969
    76   6 C    3.985 --    77 C    1.508    75 C    1.363   144 H    0.969
    77   6 C    3.990 --    76 C    1.508    66 C    1.329   145 H    0.960
                            74 C    0.112
    78   1 H    0.996 --     4 C    0.964
    79   1 H    0.995 --     6 C    0.962
    80   1 H    0.996 --     7 C    0.950
    81   1 H    0.995 --     8 C    0.960
    82   1 H    0.994 --     9 C    0.937
    83   1 H    0.997 --    10 C    0.942
    84   1 H    0.997 --    11 C    0.949
    85   1 H    0.998 --    13 C    0.971
    86   1 H    0.998 --    13 C    0.954
    87   1 H    0.869 --    14 O    0.856
    88   1 H    0.885 --    15 O    0.863
    89   1 H    0.996 --    18 C    0.960
    90   1 H    0.999 --    18 C    0.960
    91   1 H    0.898 --    19 O    0.848
    92   1 H    0.996 --    20 C    0.951
    93   1 H    0.997 --    22 C    0.957
    94   1 H    0.992 --    23 C    0.955
    95   1 H    0.995 --    24 C    0.959
    96   1 H    0.996 --    25 C    0.932
    97   1 H    0.863 --    26 O    0.835
    98   1 H    0.891 --    28 O    0.847
    99   1 H    0.993 --    29 C    0.954
   100   1 H    0.990 --    29 C    0.960
   101   1 H    0.991 --    34 C    0.952
   102   1 H    0.996 --    36 C    0.957
   103   1 H    0.995 --    37 C    0.957
   104   1 H    0.995 --    38 C    0.957
   105   1 H    0.996 --    39 C    0.971
   106   1 H    0.988 --    39 C    0.955
   107   1 H    0.995 --    40 C    0.946
   108   1 H    0.998 --    41 C    0.962
   109   1 H    0.899 --    42 O    0.853
   110   1 H    0.998 --    43 C    0.959
   111   1 H    0.998 --    44 C    0.960
   112   1 H    0.999 --    45 C    0.964
   113   1 H    0.998 --    46 C    0.971
   114   1 H    0.996 --    46 C    0.971
   115   1 H    0.999 --    47 C    0.973
   116   1 H    0.999 --    47 C    0.967
   117   1 H    0.999 --    48 C    0.976
   118   1 H    0.999 --    48 C    0.977
   119   1 H    0.999 --    49 C    0.976
   120   1 H    0.999 --    49 C    0.972
   121   1 H    0.999 --    50 C    0.987
   122   1 H    0.999 --    50 C    0.985
   123   1 H    0.998 --    50 C    0.985
   124   1 H    0.883 --    51 O    0.834
   125   1 H    0.857 --    52 O    0.839
   126   1 H    0.999 --    53 C    0.943
   127   1 H    0.995 --    54 C    0.957
   128   1 H    0.997 --    55 C    0.961
   129   1 H    0.998 --    56 C    0.957
   130   1 H    0.999 --    57 C    0.957
   131   1 H    0.993 --    59 C    0.965
   132   1 H    0.998 --    59 C    0.969
   133   1 H    0.868 --    60 O    0.821
   134   1 H    0.868 --    61 O    0.847
   135   1 H    0.884 --    62 O    0.849
   136   1 H    0.879 --    63 O    0.837
   137   1 H    0.993 --    69 C    0.955
   138   1 H    0.997 --    70 C    0.961
   139   1 H    0.997 --    71 C    0.969
   140   1 H    0.997 --    72 C    0.969
   141   1 H    0.997 --    73 C    0.966
   142   1 H    0.997 --    74 C    0.951
   143   1 H    0.998 --    75 C    0.969
   144   1 H    0.997 --    76 C    0.969
   145   1 H    0.996 --    77 C    0.960
 ---------------------------------------------------------------------------

Topologies differ in total number of bonds
Writing topology from bond orders to xtbtopo.mol

molecular dipole:
                 x           y           z       tot (Debye)
 q only:       -2.659      -0.597       0.891
   full:       -2.408      -1.167       0.634       6.989
molecular quadrupole (traceless):
                xx          xy          yy          xz          yz          zz
 q only:      -41.932       0.454      13.619      24.194      -7.504      28.313
  q+dip:      -55.944      -2.425      14.999      30.919     -10.934      40.944
   full:      -56.773      -1.095      13.401      32.723      -7.523      43.372


           -------------------------------------------------
          | TOTAL ENERGY             -240.028592273674 Eh   |
          | GRADIENT NORM               0.120648903425 Eh/α |
          | HOMO-LUMO GAP               1.629370523766 eV   |
           -------------------------------------------------

------------------------------------------------------------------------
 * finished run on 2026/06/19 at 18:52:36.455     
------------------------------------------------------------------------
 total:
 * wall-time:     0 d,  0 h,  0 min,  0.321 sec
 *  cpu-time:     0 d,  0 h,  0 min,  4.888 sec
 * ratio c/w:    15.227 speedup
 SCF:
 * wall-time:     0 d,  0 h,  0 min,  0.263 sec
 *  cpu-time:     0 d,  0 h,  0 min,  4.141 sec
 * ratio c/w:    15.770 speedup

normal termination of xtb
