      -----------------------------------------------------------      
     |                   =====================                   |     
     |                           x T B                           |     
     |                   =====================                   |     
     |                         S. Grimme                         |     
     |          Mulliken Center for Theoretical Chemistry        |     
     |                    University of Bonn                     |     
      -----------------------------------------------------------      

   * xtb version 6.7.1 (edcfbbe) compiled by 'albert@albert-system' on 2024-07-22

   xtb is free software: you can redistribute it and/or modify it under
   the terms of the GNU Lesser General Public License as published by
   the Free Software Foundation, either version 3 of the License, or
   (at your option) any later version.
   
   xtb is distributed in the hope that it will be useful,
   but WITHOUT ANY WARRANTY; without even the implied warranty of
   MERCHANTABILITY or FITNESS FOR A PARTICULAR PURPOSE.  See the
   GNU Lesser General Public License for more details.
   
   Cite this work as:
   * C. Bannwarth, E. Caldeweyher, S. Ehlert, A. Hansen, P. Pracht,
     J. Seibert, S. Spicher, S. Grimme, WIREs Comput. Mol. Sci., 2020, 11,
     e01493. DOI: 10.1002/wcms.1493
   
   for GFN2-xTB:
   * C. Bannwarth, S. Ehlert and S. Grimme., J. Chem. Theory Comput., 2019,
     15, 1652-1671. DOI: 10.1021/acs.jctc.8b01176
   for GFN1-xTB:
   * S. Grimme, C. Bannwarth, P. Shushkov, J. Chem. Theory Comput., 2017,
     13, 1989-2009. DOI: 10.1021/acs.jctc.7b00118
   for GFN0-xTB:
   * P. Pracht, E. Caldeweyher, S. Ehlert, S. Grimme, ChemRxiv, 2019, preprint.
     DOI: 10.26434/chemrxiv.8326202.v1
   for GFN-FF:
   * S. Spicher and S. Grimme, Angew. Chem. Int. Ed., 2020, 59, 15665-15673.
     DOI: 10.1002/anie.202004239
   
   for ALPB and GBSA implicit solvation:
   * S. Ehlert, M. Stahn, S. Spicher, S. Grimme, J. Chem. Theory Comput.,
     2021, 17, 4250-4261. DOI: 10.1021/acs.jctc.1c00471
   
   for ddCOSMO and CPCM-X implicit solvation:
   * M. Stahn, S. Ehlert, S. Grimme, J. Phys. Chem. A,
     2023, XX, XXXX-XXXX. DOI: 10.1021/acs.jpca.3c04382
   
   for DFT-D4:
   * E. Caldeweyher, C. Bannwarth and S. Grimme, J. Chem. Phys., 2017,
     147, 034112. DOI: 10.1063/1.4993215
   * E. Caldeweyher, S. Ehlert, A. Hansen, H. Neugebauer, S. Spicher,
     C. Bannwarth and S. Grimme, J. Chem. Phys., 2019, 150, 154122.
     DOI: 10.1063/1.5090222
   * E. Caldeweyher, J.-M. Mewes, S. Ehlert and S. Grimme, Phys. Chem. Chem. Phys.
     2020, 22, 8499-8512. DOI: 10.1039/D0CP00502A
   
   for sTDA-xTB:
   * S. Grimme and C. Bannwarth, J. Chem. Phys., 2016, 145, 054103.
     DOI: 10.1063/1.4959605
   
   in the mass-spec context:
   * V. Asgeirsson, C. Bauer and S. Grimme, Chem. Sci., 2017, 8, 4879.
     DOI: 10.1039/c7sc00601b
   * J. Koopman and S. Grimme, ACS Omega 2019, 4, 12, 15120-15133.
     DOI: 10.1021/acsomega.9b02011
   
   for metadynamics refer to:
   * S. Grimme, J. Chem. Theory Comput., 2019, 155, 2847-2862
     DOI: 10.1021/acs.jctc.9b00143
   
   for SPH calculations refer to:
   * S. Spicher and S. Grimme, J. Chem. Theory Comput., 2021, 17, 1701-1714
     DOI: 10.1021/acs.jctc.0c01306
   
   for ONIOM refer to:
   * C. Plett, A. Katbashev, S. Ehlert, S. Grimme, M. Bursch,
     Phys. Chem. Chem. Phys., 2023, 25, 17860-17868. DOI: 10.1039/D3CP02178E
   
   for DIPRO refer to:
   * J. Kohn, N. Gildemeister, S. Grimme, D. Fazzi, A. Hansen,
     J. Chem. Phys., 2023, just accepted.
   
   for PTB refer to:
   * S. Grimme, M. Mueller, A. Hansen, J. Chem. Phys., 2023, 158, 124111.
     DOI: 10.1063/5.0137838
   
   with help from (in alphabetical order)
   P. Atkinson, C. Bannwarth, F. Bohle, G. Brandenburg, E. Caldeweyher
   M. Checinski, S. Dohm, S. Ehlert, S. Ehrlich, I. Gerasimov, C. Hölzer
   A. Katbashev, J. Kohn, J. Koopman, C. Lavigne, S. Lehtola, F. März, M. Müller,
   F. Musil, H. Neugebauer, J. Pisarek, C. Plett, P. Pracht, F. Pultar,
   J. Seibert, P. Shushkov, S. Spicher, M. Stahn, M. Steiner, T. Strunk,
   J. Stückrath, T. Rose, and J. Unsleber
   
 * started run on 2026/06/19 at 18:52:34.485     
   ID    Z sym.   atoms
    1    6 C      1-11, 13, 18, 20, 22-25, 29, 31, 33, 34, 36-41, 43-50,
                  53-57, 59, 64-77
    2    8 O      12, 14-17, 19, 21, 26-28, 30, 32, 35, 42, 51, 52, 58, 60-63
    3    1 H      78-145

           -------------------------------------------------
          |                Calculation Setup                |
           -------------------------------------------------

          program call               : xtb PAPU-0079/conf01.xyz --gfn 2 --alpb octanol --chrg 0 --uhf 0 --namespace PAPU-0079/conf01_octanol
          hostname                   : cpu10
          calculation namespace      : PAPU-0079/conf01_octanol
          coordinate file            : PAPU-0079/conf01.xyz
          omp threads                :                    16


           -------------------------------------------------
          |                 G F N 2 - x T B                 |
           -------------------------------------------------

        Reference                      10.1021/acs.jctc.8b01176
      * Hamiltonian:
        H0-scaling (s, p, d)           1.850000    2.230000    2.230000
        zeta-weighting                 0.500000
      * Dispersion:
        s8                             2.700000
        a1                             0.520000
        a2                             5.000000
        s9                             5.000000
      * Repulsion:
        kExp                           1.500000    1.000000
        rExp                           1.000000
      * Coulomb:
        alpha                          2.000000
        third order                    shell-resolved
        anisotropic                    true
        a3                             3.000000
        a5                             4.000000
        cn-shift                       1.200000
        cn-exp                         4.000000
        max-rad                        5.000000

      * Solvation model:               ALPB
        Solvent                        octanol
        Parameter file                 internal GFN2-xTB/ALPB
        Dielectric constant                9.8629E+00
        Reference state                gsolv [1 M gas/solution]
        Free energy shift                  2.3397E-03 Eh       1.4682E+00 kcal/mol
        Temperature                        2.9815E+02 K
        Density                            8.3000E-01 kg/L
        Solvent mass                       1.3023E+02 g/mol
        Interaction kernel             P16
        Born radius scaling (c1)           1.5898E+00
        Born radii integrator          GBOBC
        Born offset                        0.0000E+00 a0       0.0000E+00 AA
        H-bond correction              true
        Ion screening                  false
        Surface tension                    1.0000E-05 Eh       1.5569E+01 dyn/cm
        Grid points                               230 per atom

          ...................................................
          :                      SETUP                      :
          :.................................................:
          :  # basis functions                 376          :
          :  # atomic orbitals                 376          :
          :  # shells                          222          :
          :  # electrons                       418          :
          :  max. iterations                   250          :
          :  Hamiltonian                  GFN2-xTB          :
          :  restarted?                      false          :
          :  GBSA solvation                   true          :
          :  PC potential                    false          :
          :  electronic temp.          300.0000000     K    :
          :  accuracy                    1.0000000          :
          :  -> integral cutoff          0.2500000E+02      :
          :  -> integral neglect         0.1000000E-07      :
          :  -> SCF convergence          0.1000000E-05 Eh   :
          :  -> wf. convergence          0.1000000E-03 e    :
          :  Broyden damping             0.4000000          :
          :  net charge                          0          :
          :  unpaired electrons                  0          :
          ...................................................

 iter      E             dE          RMSdq      gap      omega  full diag
   1   -242.4939468 -0.242494E+03  0.442E+00    2.59       0.0  T
   2   -242.7190933 -0.225147E+00  0.244E+00    1.75       1.0  T
   3   -242.7029766  0.161168E-01  0.999E-01    1.71       1.0  T
   4   -242.7409102 -0.379337E-01  0.282E-01    1.42       1.0  T
   5   -242.7457100 -0.479975E-02  0.123E-01    1.40       1.0  T
   6   -242.7464114 -0.701430E-03  0.610E-02    1.44       1.0  T
   7   -242.7465589 -0.147522E-03  0.259E-02    1.44       1.0  T
   8   -242.7465842 -0.252256E-04  0.114E-02    1.44       1.0  T
   9   -242.7465892 -0.508690E-05  0.489E-03    1.44       1.7  T
  10   -242.7465905 -0.120574E-05  0.279E-03    1.44       3.0  T
  11   -242.7465908 -0.371408E-06  0.129E-03    1.44       6.4  T
  12   -242.7465909 -0.424446E-07  0.586E-04    1.44      14.2  T
  13   -242.7465909 -0.143065E-07  0.268E-04    1.44      31.0  T

   *** convergence criteria satisfied after 13 iterations ***

         #    Occupation            Energy/Eh            Energy/eV
      -------------------------------------------------------------
         1        2.0000           -0.7864565             -21.4006
       ...           ...                  ...                  ...
       203        2.0000           -0.4033361             -10.9753
       204        2.0000           -0.4001481             -10.8886
       205        2.0000           -0.3948983             -10.7457
       206        2.0000           -0.3923653             -10.6768
       207        2.0000           -0.3905632             -10.6278
       208        2.0000           -0.3782485             -10.2927
       209        2.0000           -0.3674619              -9.9991 (HOMO)
       210                         -0.3146130              -8.5611 (LUMO)
       211                         -0.2952597              -8.0344
       212                         -0.2584976              -7.0341
       213                         -0.2508283              -6.8254
       214                         -0.2506256              -6.8199
       ...                                ...                  ...
       376                          0.7068371              19.2340
      -------------------------------------------------------------
                  HL-Gap            0.0528489 Eh            1.4381 eV
             Fermi-level           -0.3410375 Eh           -9.2801 eV

 SCC (total)                   0 d,  0 h,  0 min,  0.267 sec
 SCC setup                      ...        0 min,  0.003 sec (  1.135%)
 Dispersion                     ...        0 min,  0.004 sec (  1.638%)
 classical contributions        ...        0 min,  0.000 sec (  0.047%)
 integral evaluation            ...        0 min,  0.011 sec (  4.311%)
 iterations                     ...        0 min,  0.206 sec ( 77.136%)
 molecular gradient             ...        0 min,  0.040 sec ( 14.960%)
 printout                       ...        0 min,  0.002 sec (  0.751%)

         :::::::::::::::::::::::::::::::::::::::::::::::::::::
         ::                     SUMMARY                     ::
         :::::::::::::::::::::::::::::::::::::::::::::::::::::
         :: total energy            -240.051471722049 Eh    ::
         :: total w/o Gsasa/hb      -239.983098857800 Eh    ::
         :: gradient norm              0.122344691954 Eh/a0 ::
         :: HOMO-LUMO gap              1.438091049849 eV    ::
         ::.................................................::
         :: SCC energy              -242.729657280166 Eh    ::
         :: -> isotropic ES            0.521299506663 Eh    ::
         :: -> anisotropic ES         -0.029738540285 Eh    ::
         :: -> anisotropic XC          0.024857022283 Eh    ::
         :: -> dispersion             -0.210491521180 Eh    ::
         :: -> Gsolv                  -0.095777560209 Eh    ::
         ::    -> Gelec               -0.027404695960 Eh    ::
         ::    -> Gsasa               -0.030470857424 Eh    ::
         ::    -> Ghb                 -0.040241676201 Eh    ::
         ::    -> Gshift               0.002339669376 Eh    ::
         :: repulsion energy           2.678185558118 Eh    ::
         :: add. restraining           0.000000000000 Eh    ::
         :: total charge               0.000000000000 e     ::
         :::::::::::::::::::::::::::::::::::::::::::::::::::::

           -------------------------------------------------
          |                Property Printout                |
           -------------------------------------------------

    * Orbital Energies and Occupations

         #    Occupation            Energy/Eh            Energy/eV
      -------------------------------------------------------------
         1        2.0000           -0.7864565             -21.4006
       ...           ...                  ...                  ...
       197        2.0000           -0.4195747             -11.4172
       198        2.0000           -0.4156836             -11.3113
       199        2.0000           -0.4139327             -11.2637
       200        2.0000           -0.4136280             -11.2554
       201        2.0000           -0.4110860             -11.1862
       202        2.0000           -0.4063133             -11.0563
       203        2.0000           -0.4033361             -10.9753
       204        2.0000           -0.4001481             -10.8886
       205        2.0000           -0.3948983             -10.7457
       206        2.0000           -0.3923653             -10.6768
       207        2.0000           -0.3905632             -10.6278
       208        2.0000           -0.3782485             -10.2927
       209        2.0000           -0.3674619              -9.9991 (HOMO)
       210                         -0.3146130              -8.5611 (LUMO)
       211                         -0.2952597              -8.0344
       212                         -0.2584976              -7.0341
       213                         -0.2508283              -6.8254
       214                         -0.2506256              -6.8199
       215                         -0.2373249              -6.4579
       216                         -0.2272760              -6.1845
       217                         -0.2186527              -5.9498
       218                         -0.2184003              -5.9430
       219                         -0.1984698              -5.4006
       220                         -0.1862924              -5.0693
       ...                                ...                  ...
       376                          0.7068371              19.2340
      -------------------------------------------------------------
                  HL-Gap            0.0528489 Eh            1.4381 eV
             Fermi-level           -0.3410375 Eh           -9.2801 eV

     #   Z          covCN         q      C6AA      α(0)
     1   6 C        2.841     0.145    24.849     8.169
     2   6 C        2.973    -0.043    29.055     8.842
     3   6 C        2.966     0.013    27.731     8.638
     4   6 C        2.928    -0.077    29.932     8.972
     5   6 C        2.838     0.147    24.794     8.160
     6   6 C        2.920    -0.105    30.645     9.078
     7   6 C        3.742     0.108    18.875     6.198
     8   6 C        3.719     0.100    19.048     6.234
     9   6 C        3.765     0.095    19.052     6.221
    10   6 C        3.765     0.101    18.960     6.206
    11   6 C        3.734     0.089    19.183     6.251
    12   8 O        1.695    -0.344    19.777     6.004
    13   6 C        3.681     0.072    19.583     6.338
    14   8 O        1.653    -0.497    22.833     6.450
    15   8 O        1.652    -0.487    22.608     6.419
    16   8 O        1.698    -0.320    19.348     5.939
    17   8 O        1.701    -0.315    19.258     5.925
    18   6 C        3.674     0.078    19.493     6.327
    19   8 O        1.653    -0.462    22.101     6.346
    20   6 C        3.652     0.235    17.213     5.958
    21   8 O        1.695    -0.357    20.017     6.040
    22   6 C        3.732     0.092    19.150     6.246
    23   6 C        3.722     0.070    19.507     6.308
    24   6 C        3.721     0.077    19.396     6.290
    25   6 C        3.769     0.076    19.341     6.268
    26   8 O        1.652    -0.487    22.617     6.420
    27   8 O        1.698    -0.323    19.392     5.946
    28   8 O        1.652    -0.461    22.061     6.341
    29   6 C        3.721     0.066    19.584     6.320
    30   8 O        1.703    -0.260    18.317     5.778
    31   6 C        2.741     0.356    20.961     7.496
    32   8 O        0.857    -0.453    22.776     6.399
    33   6 C        2.742     0.357    20.940     7.493
    34   6 C        2.895    -0.098    30.466     9.050
    35   8 O        0.857    -0.478    23.313     6.473
    36   6 C        2.905     0.008    27.833     8.651
    37   6 C        2.897    -0.044    29.094     8.844
    38   6 C        2.898    -0.009    28.244     8.714
    39   6 C        3.805    -0.084    22.102     6.693
    40   6 C        3.730     0.117    18.763     6.183
    41   6 C        2.894    -0.069    29.729     8.940
    42   8 O        1.651    -0.488    22.643     6.424
    43   6 C        2.899    -0.038    28.943     8.821
    44   6 C        2.898    -0.052    29.299     8.875
    45   6 C        2.895    -0.041    29.023     8.833
    46   6 C        3.805    -0.062    21.695     6.631
    47   6 C        3.802    -0.057    21.591     6.615
    48   6 C        3.800    -0.060    21.653     6.625
    49   6 C        3.799    -0.053    21.535     6.607
    50   6 C        3.751    -0.108    22.633     6.785
    51   8 O        1.656    -0.432    21.484     6.257
    52   8 O        1.657    -0.436    21.566     6.269
    53   6 C        3.665     0.239    17.125     5.935
    54   6 C        3.721     0.077    19.412     6.293
    55   6 C        3.723     0.087    19.234     6.263
    56   6 C        3.720     0.087    19.243     6.265
    57   6 C        3.742     0.096    19.072     6.230
    58   8 O        1.696    -0.348    19.849     6.015
    59   6 C        3.674     0.070    19.630     6.349
    60   8 O        1.653    -0.482    22.519     6.406
    61   8 O        1.654    -0.481    22.490     6.402
    62   8 O        1.651    -0.474    22.340     6.380
    63   8 O        1.654    -0.481    22.498     6.403
    64   6 C        2.962    -0.036    28.888     8.816
    65   6 C        2.986     0.008    27.827     8.653
    66   6 C        2.980     0.009    27.806     8.650
    67   6 C        2.981     0.013    27.715     8.636
    68   6 C        2.986     0.018    27.594     8.617
    69   6 C        2.923    -0.028    28.695     8.785
    70   6 C        2.921    -0.034    28.852     8.809
    71   6 C        2.919    -0.027    28.686     8.783
    72   6 C        2.919    -0.031    28.763     8.795
    73   6 C        2.925    -0.032    28.804     8.801
    74   6 C        2.925    -0.053    29.322     8.880
    75   6 C        2.919    -0.032    28.790     8.799
    76   6 C        2.920    -0.031    28.773     8.796
    77   6 C        2.922    -0.036    28.884     8.813
    78   1 H        0.926     0.071     2.076     2.253
    79   1 H        0.926     0.069     2.095     2.263
    80   1 H        0.923     0.066     2.135     2.285
    81   1 H        0.923     0.039     2.467     2.457
    82   1 H        0.923     0.078     2.002     2.212
    83   1 H        0.923     0.048     2.344     2.394
    84   1 H        0.923     0.052     2.293     2.368
    85   1 H        0.924     0.034     2.528     2.486
    86   1 H        0.924     0.047     2.353     2.399
    87   1 H        0.804     0.345     0.601     1.218
    88   1 H        0.803     0.348     0.593     1.210
    89   1 H        0.924     0.068     2.112     2.273
    90   1 H        0.924     0.017     2.774     2.604
    91   1 H        0.802     0.312     0.688     1.303
    92   1 H        0.923     0.060     2.199     2.319
    93   1 H        0.923     0.057     2.237     2.339
    94   1 H        0.923     0.087     1.910     2.161
    95   1 H        0.923     0.067     2.115     2.274
    96   1 H        0.924     0.068     2.109     2.271
    97   1 H        0.803     0.359     0.567     1.183
    98   1 H        0.802     0.325     0.651     1.268
    99   1 H        0.924     0.086     1.919     2.166
   100   1 H        0.924     0.090     1.882     2.145
   101   1 H        0.926     0.097     1.815     2.107
   102   1 H        0.926     0.061     2.191     2.315
   103   1 H        0.926     0.075     2.034     2.230
   104   1 H        0.926     0.072     2.061     2.245
   105   1 H        0.924     0.063     2.169     2.303
   106   1 H        0.924     0.080     1.983     2.202
   107   1 H        0.923     0.058     2.218     2.329
   108   1 H        0.926     0.044     2.391     2.418
   109   1 H        0.802     0.319     0.668     1.284
   110   1 H        0.926     0.044     2.397     2.421
   111   1 H        0.926     0.049     2.334     2.389
   112   1 H        0.926     0.034     2.532     2.488
   113   1 H        0.924     0.042     2.426     2.436
   114   1 H        0.924     0.041     2.436     2.441
   115   1 H        0.924     0.025     2.662     2.551
   116   1 H        0.924     0.031     2.573     2.508
   117   1 H        0.924     0.034     2.530     2.488
   118   1 H        0.924     0.029     2.602     2.522
   119   1 H        0.924     0.028     2.614     2.528
   120   1 H        0.924     0.026     2.647     2.544
   121   1 H        0.924     0.029     2.600     2.522
   122   1 H        0.924     0.042     2.419     2.432
   123   1 H        0.924     0.037     2.490     2.468
   124   1 H        0.803     0.344     0.602     1.218
   125   1 H        0.804     0.359     0.568     1.184
   126   1 H        0.923     0.019     2.747     2.592
   127   1 H        0.924     0.080     1.982     2.202
   128   1 H        0.923     0.034     2.537     2.491
   129   1 H        0.923     0.055     2.260     2.351
   130   1 H        0.923     0.031     2.577     2.510
   131   1 H        0.924     0.062     2.181     2.310
   132   1 H        0.924     0.055     2.261     2.351
   133   1 H        0.803     0.371     0.542     1.156
   134   1 H        0.804     0.366     0.553     1.168
   135   1 H        0.802     0.340     0.613     1.230
   136   1 H        0.803     0.365     0.555     1.170
   137   1 H        0.926     0.073     2.048     2.238
   138   1 H        0.926     0.052     2.292     2.368
   139   1 H        0.926     0.052     2.292     2.367
   140   1 H        0.926     0.050     2.314     2.379
   141   1 H        0.926     0.053     2.289     2.366
   142   1 H        0.926     0.049     2.331     2.388
   143   1 H        0.926     0.036     2.509     2.477
   144   1 H        0.926     0.052     2.300     2.372
   145   1 H        0.926     0.056     2.246     2.344

 Mol. C6AA /au·bohr⁶  :     215255.451114
 Mol. C8AA /au·bohr⁸  :    4978530.101775
 Mol. α(0) /au        :        703.137895


Wiberg/Mayer (AO) data.
largest (>0.10) Wiberg bond orders for each atom

 ---------------------------------------------------------------------------
     #   Z sym  total        # sym  WBO       # sym  WBO       # sym  WBO
 ---------------------------------------------------------------------------
     1   6 C    3.944 --     6 C    1.380     2 C    1.337    51 O    1.079
     2   6 C    3.974 --     3 C    1.388     1 C    1.337     7 C    0.990
     3   6 C    3.987 --     4 C    1.431     2 C    1.388    13 C    1.003
     4   6 C    3.982 --     3 C    1.431     5 C    1.356    78 H    0.963
     5   6 C    3.944 --     6 C    1.385     4 C    1.356    52 O    1.073
     6   6 C    3.976 --     5 C    1.385     1 C    1.380    79 H    0.962
     7   6 C    3.931 --     2 C    0.990    80 H    0.952     8 C    0.951
                            12 O    0.947
     8   6 C    3.956 --    15 O    1.004    81 H    0.960     9 C    0.960
                             7 C    0.951
     9   6 C    3.912 --    10 C    0.963     8 C    0.960    82 H    0.935
                            17 O    0.930
    10   6 C    3.938 --     9 C    0.963    11 C    0.961    16 O    0.961
                            83 H    0.942
    11   6 C    3.949 --    18 C    0.983    12 O    0.962    10 C    0.961
                            84 H    0.949
    12   8 O    2.079 --    11 C    0.962     7 C    0.947
    13   6 C    3.955 --     3 C    1.003    14 O    0.983    85 H    0.971
                            86 H    0.955
    14   8 O    1.915 --    13 C    0.983    87 H    0.867
    15   8 O    1.931 --     8 C    1.004    88 H    0.833
    16   8 O    2.091 --    20 C    0.992    10 C    0.961
    17   8 O    2.248 --    33 C    1.059     9 C    0.930    35 O    0.131
    18   6 C    3.961 --    19 O    1.009    11 C    0.983    90 H    0.961
                            89 H    0.959
    19   8 O    1.943 --    18 C    1.009    91 H    0.854
    20   6 C    3.923 --    16 O    0.992    21 O    0.953    25 C    0.953
                            92 H    0.951
    21   8 O    2.071 --    20 C    0.953    22 C    0.948
    22   6 C    3.934 --    29 C    0.983    23 C    0.960    93 H    0.957
                            21 O    0.948
    23   6 C    3.958 --    28 O    1.008    24 C    0.966    22 C    0.960
                            94 H    0.955
    24   6 C    3.957 --    26 O    0.995    23 C    0.966    25 C    0.961
                            95 H    0.959
    25   6 C    3.939 --    27 O    0.965    24 C    0.961    20 C    0.953
                            96 H    0.929
    26   8 O    1.947 --    24 C    0.995    97 H    0.842
    27   8 O    2.087 --    53 C    0.986    25 C    0.965
    28   8 O    1.969 --    23 C    1.008    98 H    0.848
    29   6 C    3.925 --    22 C    0.983   100 H    0.960    30 O    0.960
                            99 H    0.953
    30   8 O    2.298 --    31 C    1.101    29 C    0.960    32 O    0.151
    31   6 C    3.892 --    32 O    1.677    30 O    1.101    64 C    1.015
    32   8 O    2.012 --    31 C    1.677    30 O    0.151
    33   6 C    3.888 --    35 O    1.635    34 C    1.074    17 O    1.059
    34   6 C    3.959 --    36 C    1.708    33 C    1.074   101 H    0.952
                            38 C    0.109
    35   8 O    1.997 --    33 C    1.635    17 O    0.131
    36   6 C    3.974 --    34 C    1.708    37 C    1.159   102 H    0.956
    37   6 C    3.983 --    38 C    1.765    36 C    1.159   103 H    0.957
    38   6 C    3.968 --    37 C    1.765    39 C    1.048   104 H    0.956
                            34 C    0.109
    39   6 C    3.989 --    38 C    1.048   105 H    0.971   106 H    0.952
                            40 C    0.951
    40   6 C    3.946 --    41 C    1.003    42 O    0.982    39 C    0.951
                           107 H    0.947
    41   6 C    3.977 --    43 C    1.838    40 C    1.003   108 H    0.962
                            45 C    0.130
    42   8 O    1.941 --    40 C    0.982   109 H    0.852
    43   6 C    3.990 --    41 C    1.838    44 C    1.123   110 H    0.959
    44   6 C    3.988 --    45 C    1.828    43 C    1.123   111 H    0.959
    45   6 C    3.989 --    44 C    1.828    46 C    1.030   112 H    0.964
                            41 C    0.130
    46   6 C    3.995 --    45 C    1.030    47 C    0.983   113 H    0.971
                           114 H    0.971
    47   6 C    3.988 --    48 C    1.006    46 C    0.983   115 H    0.972
                           116 H    0.968
    48   6 C    3.995 --    49 C    1.006    47 C    1.006   117 H    0.976
                           118 H    0.975
    49   6 C    3.995 --    50 C    1.021    48 C    1.006   119 H    0.975
                           120 H    0.973
    50   6 C    3.995 --    49 C    1.021   123 H    0.987   122 H    0.985
                           121 H    0.984
    51   8 O    2.094 --     1 C    1.079   124 H    0.834
    52   8 O    2.082 --     5 C    1.073   125 H    0.852
    53   6 C    3.919 --    27 O    0.986    54 C    0.958    58 O    0.949
                           126 H    0.941
    54   6 C    3.956 --    62 O    1.001    55 C    0.962    53 C    0.958
                           127 H    0.955
    55   6 C    3.965 --    61 O    1.002    56 C    0.968    54 C    0.962
                           128 H    0.959
    56   6 C    3.963 --    60 O    1.001    55 C    0.968    57 C    0.967
                           129 H    0.957
    57   6 C    3.940 --    59 C    0.983    56 C    0.967    58 O    0.957
                           130 H    0.956
    58   8 O    2.077 --    57 C    0.957    53 C    0.949
    59   6 C    3.962 --    63 O    1.013    57 C    0.983   132 H    0.968
                           131 H    0.963
    60   8 O    1.942 --    56 C    1.001   133 H    0.834
    61   8 O    1.932 --    55 C    1.002   134 H    0.848
    62   8 O    1.938 --    54 C    1.001   135 H    0.852
    63   8 O    1.950 --    59 C    1.013   136 H    0.825
    64   6 C    3.978 --    69 C    1.571    65 C    1.155    31 C    1.015
    65   6 C    3.987 --    74 C    1.323    66 C    1.295    64 C    1.155
    66   6 C    3.988 --    77 C    1.328    65 C    1.295    67 C    1.152
    67   6 C    3.988 --    70 C    1.333    68 C    1.283    66 C    1.152
    68   6 C    3.989 --    73 C    1.303    67 C    1.283    69 C    1.220
    69   6 C    3.982 --    64 C    1.571    68 C    1.220   137 H    0.954
    70   6 C    3.990 --    71 C    1.508    67 C    1.333   138 H    0.960
                            73 C    0.112
    71   6 C    3.976 --    70 C    1.508    72 C    1.358   139 H    0.969
    72   6 C    3.984 --    73 C    1.520    71 C    1.358   140 H    0.969
    73   6 C    3.982 --    72 C    1.520    68 C    1.303   141 H    0.966
                            70 C    0.112
    74   6 C    3.983 --    75 C    1.507    65 C    1.323   142 H    0.951
                            77 C    0.112
    75   6 C    3.984 --    74 C    1.507    76 C    1.363   143 H    0.970
    76   6 C    3.984 --    77 C    1.508    75 C    1.363   144 H    0.968
    77   6 C    3.989 --    76 C    1.508    66 C    1.328   145 H    0.959
                            74 C    0.112
    78   1 H    0.994 --     4 C    0.963
    79   1 H    0.995 --     6 C    0.962
    80   1 H    0.995 --     7 C    0.952
    81   1 H    0.998 --     8 C    0.960
    82   1 H    0.993 --     9 C    0.935
    83   1 H    0.998 --    10 C    0.942
    84   1 H    0.997 --    11 C    0.949
    85   1 H    0.998 --    13 C    0.971
    86   1 H    0.998 --    13 C    0.955
    87   1 H    0.880 --    14 O    0.867
    88   1 H    0.879 --    15 O    0.833
    89   1 H    0.995 --    18 C    0.959
    90   1 H    0.999 --    18 C    0.961
    91   1 H    0.903 --    19 O    0.854
    92   1 H    0.996 --    20 C    0.951
    93   1 H    0.997 --    22 C    0.957
    94   1 H    0.992 --    23 C    0.955
    95   1 H    0.995 --    24 C    0.959
    96   1 H    0.995 --    25 C    0.929
    97   1 H    0.871 --    26 O    0.842
    98   1 H    0.894 --    28 O    0.848
    99   1 H    0.993 --    29 C    0.953
   100   1 H    0.991 --    29 C    0.960
   101   1 H    0.990 --    34 C    0.952
   102   1 H    0.996 --    36 C    0.956
   103   1 H    0.994 --    37 C    0.957
   104   1 H    0.995 --    38 C    0.956
   105   1 H    0.996 --    39 C    0.971
   106   1 H    0.986 --    39 C    0.952
   107   1 H    0.995 --    40 C    0.947
   108   1 H    0.998 --    41 C    0.962
   109   1 H    0.898 --    42 O    0.852
   110   1 H    0.998 --    43 C    0.959
   111   1 H    0.997 --    44 C    0.959
   112   1 H    0.999 --    45 C    0.964
   113   1 H    0.998 --    46 C    0.971
   114   1 H    0.996 --    46 C    0.971
   115   1 H    0.999 --    47 C    0.972
   116   1 H    0.999 --    47 C    0.968
   117   1 H    0.999 --    48 C    0.976
   118   1 H    0.999 --    48 C    0.975
   119   1 H    0.999 --    49 C    0.975
   120   1 H    0.999 --    49 C    0.973
   121   1 H    0.999 --    50 C    0.984
   122   1 H    0.998 --    50 C    0.985
   123   1 H    0.999 --    50 C    0.987
   124   1 H    0.881 --    51 O    0.834
   125   1 H    0.871 --    52 O    0.852
   126   1 H    1.000 --    53 C    0.941
   127   1 H    0.994 --    54 C    0.955
   128   1 H    0.999 --    55 C    0.959
   129   1 H    0.997 --    56 C    0.957
   130   1 H    0.999 --    57 C    0.956
   131   1 H    0.996 --    59 C    0.963
   132   1 H    0.997 --    59 C    0.968
   133   1 H    0.862 --    60 O    0.834
   134   1 H    0.866 --    61 O    0.848
   135   1 H    0.884 --    62 O    0.852
   136   1 H    0.867 --    63 O    0.825
   137   1 H    0.993 --    69 C    0.954
   138   1 H    0.997 --    70 C    0.960
   139   1 H    0.997 --    71 C    0.969
   140   1 H    0.997 --    72 C    0.969
   141   1 H    0.997 --    73 C    0.966
   142   1 H    0.997 --    74 C    0.951
   143   1 H    0.998 --    75 C    0.970
   144   1 H    0.996 --    76 C    0.968
   145   1 H    0.996 --    77 C    0.959
 ---------------------------------------------------------------------------

Topologies differ in total number of bonds
Writing topology from bond orders to xtbtopo.mol

molecular dipole:
                 x           y           z       tot (Debye)
 q only:       -0.288      -1.713       0.342
   full:        0.745      -2.729       0.099       7.195
molecular quadrupole (traceless):
                xx          xy          yy          xz          yz          zz
 q only:       20.062     -21.862     -15.590      11.350      -4.487      -4.472
  q+dip:       19.868     -31.724     -22.004      15.214      -5.570       2.136
   full:       18.926     -30.076     -23.483      17.281      -1.969       4.557


           -------------------------------------------------
          | TOTAL ENERGY             -240.051471722049 Eh   |
          | GRADIENT NORM               0.122344691954 Eh/α |
          | HOMO-LUMO GAP               1.438091049849 eV   |
           -------------------------------------------------

------------------------------------------------------------------------
 * finished run on 2026/06/19 at 18:52:34.809     
------------------------------------------------------------------------
 total:
 * wall-time:     0 d,  0 h,  0 min,  0.324 sec
 *  cpu-time:     0 d,  0 h,  0 min,  4.973 sec
 * ratio c/w:    15.352 speedup
 SCF:
 * wall-time:     0 d,  0 h,  0 min,  0.267 sec
 *  cpu-time:     0 d,  0 h,  0 min,  4.217 sec
 * ratio c/w:    15.767 speedup

normal termination of xtb
