      -----------------------------------------------------------      
     |                   =====================                   |     
     |                           x T B                           |     
     |                   =====================                   |     
     |                         S. Grimme                         |     
     |          Mulliken Center for Theoretical Chemistry        |     
     |                    University of Bonn                     |     
      -----------------------------------------------------------      

   * xtb version 6.7.1 (edcfbbe) compiled by 'albert@albert-system' on 2024-07-22

   xtb is free software: you can redistribute it and/or modify it under
   the terms of the GNU Lesser General Public License as published by
   the Free Software Foundation, either version 3 of the License, or
   (at your option) any later version.
   
   xtb is distributed in the hope that it will be useful,
   but WITHOUT ANY WARRANTY; without even the implied warranty of
   MERCHANTABILITY or FITNESS FOR A PARTICULAR PURPOSE.  See the
   GNU Lesser General Public License for more details.
   
   Cite this work as:
   * C. Bannwarth, E. Caldeweyher, S. Ehlert, A. Hansen, P. Pracht,
     J. Seibert, S. Spicher, S. Grimme, WIREs Comput. Mol. Sci., 2020, 11,
     e01493. DOI: 10.1002/wcms.1493
   
   for GFN2-xTB:
   * C. Bannwarth, S. Ehlert and S. Grimme., J. Chem. Theory Comput., 2019,
     15, 1652-1671. DOI: 10.1021/acs.jctc.8b01176
   for GFN1-xTB:
   * S. Grimme, C. Bannwarth, P. Shushkov, J. Chem. Theory Comput., 2017,
     13, 1989-2009. DOI: 10.1021/acs.jctc.7b00118
   for GFN0-xTB:
   * P. Pracht, E. Caldeweyher, S. Ehlert, S. Grimme, ChemRxiv, 2019, preprint.
     DOI: 10.26434/chemrxiv.8326202.v1
   for GFN-FF:
   * S. Spicher and S. Grimme, Angew. Chem. Int. Ed., 2020, 59, 15665-15673.
     DOI: 10.1002/anie.202004239
   
   for ALPB and GBSA implicit solvation:
   * S. Ehlert, M. Stahn, S. Spicher, S. Grimme, J. Chem. Theory Comput.,
     2021, 17, 4250-4261. DOI: 10.1021/acs.jctc.1c00471
   
   for ddCOSMO and CPCM-X implicit solvation:
   * M. Stahn, S. Ehlert, S. Grimme, J. Phys. Chem. A,
     2023, XX, XXXX-XXXX. DOI: 10.1021/acs.jpca.3c04382
   
   for DFT-D4:
   * E. Caldeweyher, C. Bannwarth and S. Grimme, J. Chem. Phys., 2017,
     147, 034112. DOI: 10.1063/1.4993215
   * E. Caldeweyher, S. Ehlert, A. Hansen, H. Neugebauer, S. Spicher,
     C. Bannwarth and S. Grimme, J. Chem. Phys., 2019, 150, 154122.
     DOI: 10.1063/1.5090222
   * E. Caldeweyher, J.-M. Mewes, S. Ehlert and S. Grimme, Phys. Chem. Chem. Phys.
     2020, 22, 8499-8512. DOI: 10.1039/D0CP00502A
   
   for sTDA-xTB:
   * S. Grimme and C. Bannwarth, J. Chem. Phys., 2016, 145, 054103.
     DOI: 10.1063/1.4959605
   
   in the mass-spec context:
   * V. Asgeirsson, C. Bauer and S. Grimme, Chem. Sci., 2017, 8, 4879.
     DOI: 10.1039/c7sc00601b
   * J. Koopman and S. Grimme, ACS Omega 2019, 4, 12, 15120-15133.
     DOI: 10.1021/acsomega.9b02011
   
   for metadynamics refer to:
   * S. Grimme, J. Chem. Theory Comput., 2019, 155, 2847-2862
     DOI: 10.1021/acs.jctc.9b00143
   
   for SPH calculations refer to:
   * S. Spicher and S. Grimme, J. Chem. Theory Comput., 2021, 17, 1701-1714
     DOI: 10.1021/acs.jctc.0c01306
   
   for ONIOM refer to:
   * C. Plett, A. Katbashev, S. Ehlert, S. Grimme, M. Bursch,
     Phys. Chem. Chem. Phys., 2023, 25, 17860-17868. DOI: 10.1039/D3CP02178E
   
   for DIPRO refer to:
   * J. Kohn, N. Gildemeister, S. Grimme, D. Fazzi, A. Hansen,
     J. Chem. Phys., 2023, just accepted.
   
   for PTB refer to:
   * S. Grimme, M. Mueller, A. Hansen, J. Chem. Phys., 2023, 158, 124111.
     DOI: 10.1063/5.0137838
   
   with help from (in alphabetical order)
   P. Atkinson, C. Bannwarth, F. Bohle, G. Brandenburg, E. Caldeweyher
   M. Checinski, S. Dohm, S. Ehlert, S. Ehrlich, I. Gerasimov, C. Hölzer
   A. Katbashev, J. Kohn, J. Koopman, C. Lavigne, S. Lehtola, F. März, M. Müller,
   F. Musil, H. Neugebauer, J. Pisarek, C. Plett, P. Pracht, F. Pultar,
   J. Seibert, P. Shushkov, S. Spicher, M. Stahn, M. Steiner, T. Strunk,
   J. Stückrath, T. Rose, and J. Unsleber
   
 * started run on 2026/06/19 at 18:52:35.797     
   ID    Z sym.   atoms
    1    6 C      1-11, 13, 18, 20, 22-25, 29, 31, 33, 34, 36-41, 43-50,
                  53-57, 59, 64-77
    2    8 O      12, 14-17, 19, 21, 26-28, 30, 32, 35, 42, 51, 52, 58, 60-63
    3    1 H      78-145

           -------------------------------------------------
          |                Calculation Setup                |
           -------------------------------------------------

          program call               : xtb PAPU-0079/conf03.xyz --gfn 2 --alpb octanol --chrg 0 --uhf 0 --namespace PAPU-0079/conf03_octanol
          hostname                   : cpu10
          calculation namespace      : PAPU-0079/conf03_octanol
          coordinate file            : PAPU-0079/conf03.xyz
          omp threads                :                    16


           -------------------------------------------------
          |                 G F N 2 - x T B                 |
           -------------------------------------------------

        Reference                      10.1021/acs.jctc.8b01176
      * Hamiltonian:
        H0-scaling (s, p, d)           1.850000    2.230000    2.230000
        zeta-weighting                 0.500000
      * Dispersion:
        s8                             2.700000
        a1                             0.520000
        a2                             5.000000
        s9                             5.000000
      * Repulsion:
        kExp                           1.500000    1.000000
        rExp                           1.000000
      * Coulomb:
        alpha                          2.000000
        third order                    shell-resolved
        anisotropic                    true
        a3                             3.000000
        a5                             4.000000
        cn-shift                       1.200000
        cn-exp                         4.000000
        max-rad                        5.000000

      * Solvation model:               ALPB
        Solvent                        octanol
        Parameter file                 internal GFN2-xTB/ALPB
        Dielectric constant                9.8629E+00
        Reference state                gsolv [1 M gas/solution]
        Free energy shift                  2.3397E-03 Eh       1.4682E+00 kcal/mol
        Temperature                        2.9815E+02 K
        Density                            8.3000E-01 kg/L
        Solvent mass                       1.3023E+02 g/mol
        Interaction kernel             P16
        Born radius scaling (c1)           1.5898E+00
        Born radii integrator          GBOBC
        Born offset                        0.0000E+00 a0       0.0000E+00 AA
        H-bond correction              true
        Ion screening                  false
        Surface tension                    1.0000E-05 Eh       1.5569E+01 dyn/cm
        Grid points                               230 per atom

          ...................................................
          :                      SETUP                      :
          :.................................................:
          :  # basis functions                 376          :
          :  # atomic orbitals                 376          :
          :  # shells                          222          :
          :  # electrons                       418          :
          :  max. iterations                   250          :
          :  Hamiltonian                  GFN2-xTB          :
          :  restarted?                      false          :
          :  GBSA solvation                   true          :
          :  PC potential                    false          :
          :  electronic temp.          300.0000000     K    :
          :  accuracy                    1.0000000          :
          :  -> integral cutoff          0.2500000E+02      :
          :  -> integral neglect         0.1000000E-07      :
          :  -> SCF convergence          0.1000000E-05 Eh   :
          :  -> wf. convergence          0.1000000E-03 e    :
          :  Broyden damping             0.4000000          :
          :  net charge                          0          :
          :  unpaired electrons                  0          :
          ...................................................

 iter      E             dE          RMSdq      gap      omega  full diag
   1   -242.5044623 -0.242504E+03  0.444E+00    2.60       0.0  T
   2   -242.7265405 -0.222078E+00  0.245E+00    1.82       1.0  T
   3   -242.7098961  0.166444E-01  0.997E-01    1.80       1.0  T
   4   -242.7483554 -0.384593E-01  0.279E-01    1.51       1.0  T
   5   -242.7530240 -0.466857E-02  0.123E-01    1.49       1.0  T
   6   -242.7537008 -0.676859E-03  0.612E-02    1.53       1.0  T
   7   -242.7538502 -0.149367E-03  0.260E-02    1.53       1.0  T
   8   -242.7538770 -0.268131E-04  0.115E-02    1.53       1.0  T
   9   -242.7538823 -0.525303E-05  0.503E-03    1.53       1.7  T
  10   -242.7538836 -0.131492E-05  0.273E-03    1.53       3.0  T
  11   -242.7538839 -0.335982E-06  0.127E-03    1.53       6.5  T
  12   -242.7538839 -0.389562E-07  0.574E-04    1.53      14.5  T
  13   -242.7538840 -0.133878E-07  0.262E-04    1.53      31.7  T

   *** convergence criteria satisfied after 13 iterations ***

         #    Occupation            Energy/Eh            Energy/eV
      -------------------------------------------------------------
         1        2.0000           -0.7847967             -21.3554
       ...           ...                  ...                  ...
       203        2.0000           -0.4034631             -10.9788
       204        2.0000           -0.3990552             -10.8588
       205        2.0000           -0.3949466             -10.7470
       206        2.0000           -0.3924727             -10.6797
       207        2.0000           -0.3905676             -10.6279
       208        2.0000           -0.3782211             -10.2919
       209        2.0000           -0.3665694              -9.9749 (HOMO)
       210                         -0.3103937              -8.4462 (LUMO)
       211                         -0.2955770              -8.0431
       212                         -0.2584471              -7.0327
       213                         -0.2500218              -6.8034
       214                         -0.2497248              -6.7954
       ...                                ...                  ...
       376                          0.7070745              19.2405
      -------------------------------------------------------------
                  HL-Gap            0.0561756 Eh            1.5286 eV
             Fermi-level           -0.3384815 Eh           -9.2106 eV

 SCC (total)                   0 d,  0 h,  0 min,  0.264 sec
 SCC setup                      ...        0 min,  0.003 sec (  1.283%)
 Dispersion                     ...        0 min,  0.005 sec (  1.817%)
 classical contributions        ...        0 min,  0.000 sec (  0.083%)
 integral evaluation            ...        0 min,  0.012 sec (  4.594%)
 iterations                     ...        0 min,  0.202 sec ( 76.558%)
 molecular gradient             ...        0 min,  0.040 sec ( 15.007%)
 printout                       ...        0 min,  0.002 sec (  0.645%)

         :::::::::::::::::::::::::::::::::::::::::::::::::::::
         ::                     SUMMARY                     ::
         :::::::::::::::::::::::::::::::::::::::::::::::::::::
         :: total energy            -240.057530159082 Eh    ::
         :: total w/o Gsasa/hb      -239.987249507642 Eh    ::
         :: gradient norm              0.118710747254 Eh/a0 ::
         :: HOMO-LUMO gap              1.528616855901 eV    ::
         ::.................................................::
         :: SCC energy              -242.736879939605 Eh    ::
         :: -> isotropic ES            0.522818598590 Eh    ::
         :: -> anisotropic ES         -0.031299977094 Eh    ::
         :: -> anisotropic XC          0.024411329570 Eh    ::
         :: -> dispersion             -0.209284763449 Eh    ::
         :: -> Gsolv                  -0.097426042094 Eh    ::
         ::    -> Gelec               -0.027145390654 Eh    ::
         ::    -> Gsasa               -0.030719854850 Eh    ::
         ::    -> Ghb                 -0.041900465966 Eh    ::
         ::    -> Gshift               0.002339669376 Eh    ::
         :: repulsion energy           2.679349780523 Eh    ::
         :: add. restraining           0.000000000000 Eh    ::
         :: total charge              -0.000000000000 e     ::
         :::::::::::::::::::::::::::::::::::::::::::::::::::::

           -------------------------------------------------
          |                Property Printout                |
           -------------------------------------------------

    * Orbital Energies and Occupations

         #    Occupation            Energy/Eh            Energy/eV
      -------------------------------------------------------------
         1        2.0000           -0.7847967             -21.3554
       ...           ...                  ...                  ...
       197        2.0000           -0.4186016             -11.3907
       198        2.0000           -0.4152652             -11.2999
       199        2.0000           -0.4138195             -11.2606
       200        2.0000           -0.4124633             -11.2237
       201        2.0000           -0.4108255             -11.1791
       202        2.0000           -0.4071731             -11.0797
       203        2.0000           -0.4034631             -10.9788
       204        2.0000           -0.3990552             -10.8588
       205        2.0000           -0.3949466             -10.7470
       206        2.0000           -0.3924727             -10.6797
       207        2.0000           -0.3905676             -10.6279
       208        2.0000           -0.3782211             -10.2919
       209        2.0000           -0.3665694              -9.9749 (HOMO)
       210                         -0.3103937              -8.4462 (LUMO)
       211                         -0.2955770              -8.0431
       212                         -0.2584471              -7.0327
       213                         -0.2500218              -6.8034
       214                         -0.2497248              -6.7954
       215                         -0.2362736              -6.4293
       216                         -0.2274049              -6.1880
       217                         -0.2184523              -5.9444
       218                         -0.2184203              -5.9435
       219                         -0.1984227              -5.3994
       220                         -0.1875820              -5.1044
       ...                                ...                  ...
       376                          0.7070745              19.2405
      -------------------------------------------------------------
                  HL-Gap            0.0561756 Eh            1.5286 eV
             Fermi-level           -0.3384815 Eh           -9.2106 eV

     #   Z          covCN         q      C6AA      α(0)
     1   6 C        2.841     0.145    24.841     8.168
     2   6 C        2.973    -0.042    29.038     8.839
     3   6 C        2.966     0.013    27.732     8.638
     4   6 C        2.928    -0.077    29.935     8.973
     5   6 C        2.838     0.147    24.795     8.160
     6   6 C        2.920    -0.105    30.639     9.077
     7   6 C        3.742     0.108    18.872     6.198
     8   6 C        3.719     0.099    19.057     6.235
     9   6 C        3.768     0.097    19.010     6.214
    10   6 C        3.763     0.100    18.976     6.209
    11   6 C        3.734     0.089    19.186     6.251
    12   8 O        1.695    -0.344    19.790     6.006
    13   6 C        3.681     0.072    19.574     6.336
    14   8 O        1.653    -0.497    22.834     6.451
    15   8 O        1.652    -0.488    22.645     6.424
    16   8 O        1.698    -0.323    19.394     5.946
    17   8 O        1.702    -0.311    19.191     5.915
    18   6 C        3.674     0.079    19.485     6.325
    19   8 O        1.653    -0.463    22.118     6.349
    20   6 C        3.651     0.235    17.219     5.960
    21   8 O        1.696    -0.357    20.013     6.040
    22   6 C        3.734     0.093    19.120     6.241
    23   6 C        3.722     0.072    19.475     6.302
    24   6 C        3.721     0.080    19.355     6.283
    25   6 C        3.766     0.075    19.364     6.272
    26   8 O        1.652    -0.479    22.438     6.394
    27   8 O        1.699    -0.330    19.526     5.966
    28   8 O        1.652    -0.463    22.103     6.346
    29   6 C        3.722     0.067    19.567     6.317
    30   8 O        1.703    -0.261    18.333     5.781
    31   6 C        2.742     0.355    20.967     7.497
    32   8 O        0.857    -0.453    22.777     6.399
    33   6 C        2.745     0.357    20.948     7.494
    34   6 C        2.895    -0.098    30.476     9.051
    35   8 O        0.857    -0.473    23.189     6.456
    36   6 C        2.906     0.007    27.872     8.657
    37   6 C        2.897    -0.046    29.130     8.849
    38   6 C        2.898    -0.012    28.316     8.725
    39   6 C        3.805    -0.084    22.103     6.693
    40   6 C        3.730     0.116    18.775     6.185
    41   6 C        2.894    -0.068    29.698     8.935
    42   8 O        1.651    -0.490    22.679     6.429
    43   6 C        2.899    -0.038    28.954     8.823
    44   6 C        2.898    -0.052    29.293     8.874
    45   6 C        2.895    -0.042    29.035     8.835
    46   6 C        3.805    -0.062    21.694     6.631
    47   6 C        3.802    -0.056    21.588     6.615
    48   6 C        3.801    -0.060    21.655     6.625
    49   6 C        3.799    -0.054    21.539     6.608
    50   6 C        3.751    -0.108    22.634     6.785
    51   8 O        1.656    -0.432    21.481     6.257
    52   8 O        1.657    -0.436    21.568     6.269
    53   6 C        3.663     0.232    17.231     5.955
    54   6 C        3.723     0.085    19.278     6.270
    55   6 C        3.724     0.094    19.125     6.245
    56   6 C        3.720     0.086    19.256     6.268
    57   6 C        3.737     0.093    19.117     6.239
    58   8 O        1.695    -0.357    20.018     6.041
    59   6 C        3.674     0.074    19.570     6.339
    60   8 O        1.653    -0.483    22.530     6.407
    61   8 O        1.654    -0.479    22.449     6.396
    62   8 O        1.654    -0.482    22.518     6.406
    63   8 O        1.654    -0.486    22.604     6.418
    64   6 C        2.962    -0.036    28.889     8.816
    65   6 C        2.986     0.008    27.821     8.652
    66   6 C        2.980     0.009    27.800     8.649
    67   6 C        2.981     0.013    27.708     8.635
    68   6 C        2.986     0.018    27.593     8.617
    69   6 C        2.923    -0.027    28.664     8.780
    70   6 C        2.921    -0.034    28.851     8.808
    71   6 C        2.919    -0.027    28.682     8.782
    72   6 C        2.919    -0.030    28.760     8.794
    73   6 C        2.925    -0.032    28.799     8.801
    74   6 C        2.925    -0.053    29.313     8.879
    75   6 C        2.919    -0.032    28.790     8.799
    76   6 C        2.920    -0.031    28.772     8.796
    77   6 C        2.922    -0.035    28.880     8.813
    78   1 H        0.926     0.071     2.076     2.253
    79   1 H        0.926     0.069     2.097     2.264
    80   1 H        0.923     0.065     2.144     2.290
    81   1 H        0.923     0.041     2.442     2.444
    82   1 H        0.923     0.077     2.007     2.216
    83   1 H        0.923     0.050     2.318     2.381
    84   1 H        0.923     0.053     2.289     2.366
    85   1 H        0.924     0.035     2.522     2.483
    86   1 H        0.924     0.046     2.369     2.407
    87   1 H        0.804     0.345     0.601     1.218
    88   1 H        0.803     0.348     0.593     1.210
    89   1 H        0.924     0.067     2.117     2.276
    90   1 H        0.924     0.018     2.767     2.601
    91   1 H        0.802     0.312     0.687     1.302
    92   1 H        0.923     0.060     2.202     2.321
    93   1 H        0.923     0.053     2.282     2.362
    94   1 H        0.923     0.083     1.953     2.185
    95   1 H        0.923     0.067     2.120     2.277
    96   1 H        0.924     0.074     2.038     2.233
    97   1 H        0.803     0.353     0.581     1.198
    98   1 H        0.802     0.324     0.653     1.269
    99   1 H        0.924     0.085     1.931     2.173
   100   1 H        0.924     0.088     1.901     2.156
   101   1 H        0.926     0.098     1.808     2.103
   102   1 H        0.926     0.060     2.196     2.317
   103   1 H        0.926     0.074     2.038     2.232
   104   1 H        0.926     0.073     2.057     2.243
   105   1 H        0.924     0.061     2.186     2.312
   106   1 H        0.924     0.082     1.964     2.191
   107   1 H        0.923     0.057     2.237     2.339
   108   1 H        0.926     0.044     2.398     2.421
   109   1 H        0.802     0.319     0.666     1.282
   110   1 H        0.926     0.044     2.398     2.422
   111   1 H        0.926     0.048     2.349     2.397
   112   1 H        0.926     0.034     2.537     2.491
   113   1 H        0.924     0.042     2.426     2.436
   114   1 H        0.924     0.041     2.441     2.444
   115   1 H        0.924     0.025     2.659     2.550
   116   1 H        0.924     0.030     2.582     2.513
   117   1 H        0.924     0.034     2.532     2.489
   118   1 H        0.924     0.029     2.604     2.523
   119   1 H        0.924     0.028     2.610     2.527
   120   1 H        0.924     0.026     2.647     2.544
   121   1 H        0.924     0.029     2.596     2.520
   122   1 H        0.924     0.042     2.423     2.434
   123   1 H        0.924     0.037     2.491     2.468
   124   1 H        0.803     0.345     0.601     1.218
   125   1 H        0.804     0.359     0.568     1.184
   126   1 H        0.923     0.034     2.524     2.485
   127   1 H        0.923     0.056     2.244     2.343
   128   1 H        0.923     0.038     2.474     2.460
   129   1 H        0.923     0.056     2.250     2.346
   130   1 H        0.923     0.038     2.472     2.459
   131   1 H        0.924     0.060     2.201     2.320
   132   1 H        0.924     0.054     2.266     2.354
   133   1 H        0.803     0.372     0.540     1.154
   134   1 H        0.804     0.367     0.550     1.165
   135   1 H        0.804     0.357     0.572     1.188
   136   1 H        0.803     0.364     0.556     1.171
   137   1 H        0.926     0.072     2.058     2.243
   138   1 H        0.926     0.052     2.290     2.366
   139   1 H        0.926     0.052     2.289     2.366
   140   1 H        0.926     0.051     2.313     2.378
   141   1 H        0.926     0.052     2.290     2.367
   142   1 H        0.926     0.049     2.328     2.386
   143   1 H        0.926     0.035     2.514     2.479
   144   1 H        0.926     0.052     2.300     2.372
   145   1 H        0.926     0.056     2.247     2.344

 Mol. C6AA /au·bohr⁶  :     215259.779900
 Mol. C8AA /au·bohr⁸  :    4978607.509033
 Mol. α(0) /au        :        703.143662


Wiberg/Mayer (AO) data.
largest (>0.10) Wiberg bond orders for each atom

 ---------------------------------------------------------------------------
     #   Z sym  total        # sym  WBO       # sym  WBO       # sym  WBO
 ---------------------------------------------------------------------------
     1   6 C    3.944 --     6 C    1.380     2 C    1.337    51 O    1.080
     2   6 C    3.974 --     3 C    1.388     1 C    1.337     7 C    0.990
     3   6 C    3.987 --     4 C    1.431     2 C    1.388    13 C    1.003
     4   6 C    3.982 --     3 C    1.431     5 C    1.356    78 H    0.963
     5   6 C    3.943 --     6 C    1.385     4 C    1.356    52 O    1.073
     6   6 C    3.976 --     5 C    1.385     1 C    1.380    79 H    0.962
     7   6 C    3.931 --     2 C    0.990    80 H    0.952     8 C    0.951
                            12 O    0.947
     8   6 C    3.956 --    15 O    1.004     9 C    0.961    81 H    0.959
                             7 C    0.951
     9   6 C    3.913 --    10 C    0.963     8 C    0.961    82 H    0.941
                            17 O    0.932
    10   6 C    3.938 --     9 C    0.963    16 O    0.961    11 C    0.961
                            83 H    0.942
    11   6 C    3.949 --    18 C    0.984    12 O    0.962    10 C    0.961
                            84 H    0.949
    12   8 O    2.078 --    11 C    0.962     7 C    0.947
    13   6 C    3.955 --     3 C    1.003    14 O    0.983    85 H    0.971
                            86 H    0.956
    14   8 O    1.915 --    13 C    0.983    87 H    0.867
    15   8 O    1.928 --     8 C    1.004    88 H    0.830
    16   8 O    2.087 --    20 C    0.988    10 C    0.961
    17   8 O    2.253 --    33 C    1.061     9 C    0.932    35 O    0.133
    18   6 C    3.961 --    19 O    1.009    11 C    0.984    90 H    0.961
                            89 H    0.960
    19   8 O    1.942 --    18 C    1.009    91 H    0.855
    20   6 C    3.921 --    16 O    0.988    21 O    0.955    25 C    0.953
                            92 H    0.951
    21   8 O    2.071 --    20 C    0.955    22 C    0.948
    22   6 C    3.935 --    29 C    0.983    23 C    0.960    93 H    0.957
                            21 O    0.948
    23   6 C    3.957 --    28 O    1.007    24 C    0.964    22 C    0.960
                            94 H    0.956
    24   6 C    3.960 --    26 O    1.002    23 C    0.964    25 C    0.960
                            95 H    0.959
    25   6 C    3.938 --    24 C    0.960    27 O    0.960    20 C    0.953
                            96 H    0.937
    26   8 O    1.949 --    24 C    1.002    97 H    0.848
    27   8 O    2.080 --    53 C    0.985    25 C    0.960
    28   8 O    1.969 --    23 C    1.007    98 H    0.845
    29   6 C    3.925 --    22 C    0.983   100 H    0.960    30 O    0.959
                            99 H    0.953
    30   8 O    2.298 --    31 C    1.100    29 C    0.959    32 O    0.150
    31   6 C    3.893 --    32 O    1.674    30 O    1.100    64 C    1.017
    32   8 O    2.013 --    31 C    1.674    30 O    0.150
    33   6 C    3.889 --    35 O    1.645    34 C    1.067    17 O    1.061
    34   6 C    3.959 --    36 C    1.721    33 C    1.067   101 H    0.951
                            38 C    0.106
    35   8 O    2.001 --    33 C    1.645    17 O    0.133
    36   6 C    3.974 --    34 C    1.721    37 C    1.150   102 H    0.955
    37   6 C    3.983 --    38 C    1.775    36 C    1.150   103 H    0.956
    38   6 C    3.969 --    37 C    1.775    39 C    1.046   104 H    0.952
                            34 C    0.106
    39   6 C    3.990 --    38 C    1.046   105 H    0.971    40 C    0.957
                           106 H    0.947
    40   6 C    3.948 --    41 C    1.003    42 O    0.982    39 C    0.957
                           107 H    0.947
    41   6 C    3.977 --    43 C    1.838    40 C    1.003   108 H    0.962
                            45 C    0.129
    42   8 O    1.939 --    40 C    0.982   109 H    0.852
    43   6 C    3.990 --    41 C    1.838    44 C    1.123   110 H    0.959
    44   6 C    3.988 --    45 C    1.828    43 C    1.123   111 H    0.960
    45   6 C    3.989 --    44 C    1.828    46 C    1.030   112 H    0.964
                            41 C    0.129
    46   6 C    3.995 --    45 C    1.030    47 C    0.984   113 H    0.971
                           114 H    0.971
    47   6 C    3.988 --    48 C    1.006    46 C    0.984   115 H    0.972
                           116 H    0.968
    48   6 C    3.995 --    49 C    1.006    47 C    1.006   117 H    0.976
                           118 H    0.975
    49   6 C    3.995 --    50 C    1.021    48 C    1.006   119 H    0.974
                           120 H    0.973
    50   6 C    3.995 --    49 C    1.021   123 H    0.987   122 H    0.985
                           121 H    0.984
    51   8 O    2.094 --     1 C    1.080   124 H    0.833
    52   8 O    2.082 --     5 C    1.073   125 H    0.852
    53   6 C    3.914 --    27 O    0.985    54 C    0.955    58 O    0.946
                           126 H    0.943
    54   6 C    3.958 --    62 O    1.000    55 C    0.970   127 H    0.956
                            53 C    0.955
    55   6 C    3.965 --    61 O    1.003    54 C    0.970    56 C    0.969
                           128 H    0.959
    56   6 C    3.962 --    60 O    1.000    55 C    0.969    57 C    0.966
                           129 H    0.958
    57   6 C    3.941 --    59 C    0.983    56 C    0.966    58 O    0.958
                           130 H    0.957
    58   8 O    2.063 --    57 C    0.958    53 C    0.946
    59   6 C    3.962 --    63 O    1.011    57 C    0.983   132 H    0.968
                           131 H    0.963
    60   8 O    1.945 --    56 C    1.000   133 H    0.831
    61   8 O    1.933 --    55 C    1.003   134 H    0.847
    62   8 O    1.928 --    54 C    1.000   135 H    0.855
    63   8 O    1.948 --    59 C    1.011   136 H    0.821
    64   6 C    3.979 --    69 C    1.569    65 C    1.155    31 C    1.017
    65   6 C    3.987 --    74 C    1.323    66 C    1.295    64 C    1.155
    66   6 C    3.988 --    77 C    1.328    65 C    1.295    67 C    1.151
    67   6 C    3.988 --    70 C    1.333    68 C    1.283    66 C    1.151
    68   6 C    3.989 --    73 C    1.303    67 C    1.283    69 C    1.221
    69   6 C    3.982 --    64 C    1.569    68 C    1.221   137 H    0.955
    70   6 C    3.990 --    71 C    1.508    67 C    1.333   138 H    0.960
                            73 C    0.112
    71   6 C    3.976 --    70 C    1.508    72 C    1.358   139 H    0.969
    72   6 C    3.984 --    73 C    1.520    71 C    1.358   140 H    0.969
    73   6 C    3.982 --    72 C    1.520    68 C    1.303   141 H    0.966
                            70 C    0.112
    74   6 C    3.983 --    75 C    1.507    65 C    1.323   142 H    0.951
                            77 C    0.112
    75   6 C    3.984 --    74 C    1.507    76 C    1.363   143 H    0.970
    76   6 C    3.984 --    77 C    1.508    75 C    1.363   144 H    0.968
    77   6 C    3.990 --    76 C    1.508    66 C    1.328   145 H    0.959
                            74 C    0.112
    78   1 H    0.994 --     4 C    0.963
    79   1 H    0.995 --     6 C    0.962
    80   1 H    0.995 --     7 C    0.952
    81   1 H    0.998 --     8 C    0.959
    82   1 H    0.993 --     9 C    0.941
    83   1 H    0.997 --    10 C    0.942
    84   1 H    0.997 --    11 C    0.949
    85   1 H    0.998 --    13 C    0.971
    86   1 H    0.998 --    13 C    0.956
    87   1 H    0.880 --    14 O    0.867
    88   1 H    0.879 --    15 O    0.830
    89   1 H    0.995 --    18 C    0.960
    90   1 H    0.999 --    18 C    0.961
    91   1 H    0.903 --    19 O    0.855
    92   1 H    0.996 --    20 C    0.951
    93   1 H    0.997 --    22 C    0.957
    94   1 H    0.993 --    23 C    0.956
    95   1 H    0.995 --    24 C    0.959
    96   1 H    0.994 --    25 C    0.937
    97   1 H    0.875 --    26 O    0.848
    98   1 H    0.895 --    28 O    0.845
    99   1 H    0.993 --    29 C    0.953
   100   1 H    0.991 --    29 C    0.960
   101   1 H    0.990 --    34 C    0.951
   102   1 H    0.996 --    36 C    0.955
   103   1 H    0.994 --    37 C    0.956
   104   1 H    0.995 --    38 C    0.952
   105   1 H    0.996 --    39 C    0.971
   106   1 H    0.985 --    39 C    0.947
   107   1 H    0.995 --    40 C    0.947
   108   1 H    0.998 --    41 C    0.962
   109   1 H    0.898 --    42 O    0.852
   110   1 H    0.998 --    43 C    0.959
   111   1 H    0.998 --    44 C    0.960
   112   1 H    0.999 --    45 C    0.964
   113   1 H    0.998 --    46 C    0.971
   114   1 H    0.996 --    46 C    0.971
   115   1 H    0.999 --    47 C    0.972
   116   1 H    0.999 --    47 C    0.968
   117   1 H    0.999 --    48 C    0.976
   118   1 H    0.999 --    48 C    0.975
   119   1 H    0.999 --    49 C    0.974
   120   1 H    0.999 --    49 C    0.973
   121   1 H    0.999 --    50 C    0.984
   122   1 H    0.998 --    50 C    0.985
   123   1 H    0.999 --    50 C    0.987
   124   1 H    0.881 --    51 O    0.833
   125   1 H    0.871 --    52 O    0.852
   126   1 H    0.999 --    53 C    0.943
   127   1 H    0.997 --    54 C    0.956
   128   1 H    0.999 --    55 C    0.959
   129   1 H    0.996 --    56 C    0.958
   130   1 H    0.999 --    57 C    0.957
   131   1 H    0.996 --    59 C    0.963
   132   1 H    0.997 --    59 C    0.968
   133   1 H    0.862 --    60 O    0.831
   134   1 H    0.865 --    61 O    0.847
   135   1 H    0.872 --    62 O    0.855
   136   1 H    0.867 --    63 O    0.821
   137   1 H    0.993 --    69 C    0.955
   138   1 H    0.997 --    70 C    0.960
   139   1 H    0.997 --    71 C    0.969
   140   1 H    0.997 --    72 C    0.969
   141   1 H    0.997 --    73 C    0.966
   142   1 H    0.997 --    74 C    0.951
   143   1 H    0.998 --    75 C    0.970
   144   1 H    0.996 --    76 C    0.968
   145   1 H    0.996 --    77 C    0.959
 ---------------------------------------------------------------------------

Topologies differ in total number of bonds
Writing topology from bond orders to xtbtopo.mol

molecular dipole:
                 x           y           z       tot (Debye)
 q only:        0.095      -0.910      -0.467
   full:        1.178      -1.776      -0.864       5.846
molecular quadrupole (traceless):
                xx          xy          yy          xz          yz          zz
 q only:       23.188     -12.818     -24.006       1.840      -5.968       0.817
  q+dip:       23.799     -20.334     -31.827       3.551      -6.933       8.028
   full:       22.689     -18.739     -33.530       5.356      -3.061      10.841


           -------------------------------------------------
          | TOTAL ENERGY             -240.057530159082 Eh   |
          | GRADIENT NORM               0.118710747254 Eh/α |
          | HOMO-LUMO GAP               1.528616855901 eV   |
           -------------------------------------------------

------------------------------------------------------------------------
 * finished run on 2026/06/19 at 18:52:36.120     
------------------------------------------------------------------------
 total:
 * wall-time:     0 d,  0 h,  0 min,  0.323 sec
 *  cpu-time:     0 d,  0 h,  0 min,  4.891 sec
 * ratio c/w:    15.157 speedup
 SCF:
 * wall-time:     0 d,  0 h,  0 min,  0.265 sec
 *  cpu-time:     0 d,  0 h,  0 min,  4.148 sec
 * ratio c/w:    15.658 speedup

normal termination of xtb
