      -----------------------------------------------------------      
     |                   =====================                   |     
     |                           x T B                           |     
     |                   =====================                   |     
     |                         S. Grimme                         |     
     |          Mulliken Center for Theoretical Chemistry        |     
     |                    University of Bonn                     |     
      -----------------------------------------------------------      

   * xtb version 6.7.1 (edcfbbe) compiled by 'albert@albert-system' on 2024-07-22

   xtb is free software: you can redistribute it and/or modify it under
   the terms of the GNU Lesser General Public License as published by
   the Free Software Foundation, either version 3 of the License, or
   (at your option) any later version.
   
   xtb is distributed in the hope that it will be useful,
   but WITHOUT ANY WARRANTY; without even the implied warranty of
   MERCHANTABILITY or FITNESS FOR A PARTICULAR PURPOSE.  See the
   GNU Lesser General Public License for more details.
   
   Cite this work as:
   * C. Bannwarth, E. Caldeweyher, S. Ehlert, A. Hansen, P. Pracht,
     J. Seibert, S. Spicher, S. Grimme, WIREs Comput. Mol. Sci., 2020, 11,
     e01493. DOI: 10.1002/wcms.1493
   
   for GFN2-xTB:
   * C. Bannwarth, S. Ehlert and S. Grimme., J. Chem. Theory Comput., 2019,
     15, 1652-1671. DOI: 10.1021/acs.jctc.8b01176
   for GFN1-xTB:
   * S. Grimme, C. Bannwarth, P. Shushkov, J. Chem. Theory Comput., 2017,
     13, 1989-2009. DOI: 10.1021/acs.jctc.7b00118
   for GFN0-xTB:
   * P. Pracht, E. Caldeweyher, S. Ehlert, S. Grimme, ChemRxiv, 2019, preprint.
     DOI: 10.26434/chemrxiv.8326202.v1
   for GFN-FF:
   * S. Spicher and S. Grimme, Angew. Chem. Int. Ed., 2020, 59, 15665-15673.
     DOI: 10.1002/anie.202004239
   
   for ALPB and GBSA implicit solvation:
   * S. Ehlert, M. Stahn, S. Spicher, S. Grimme, J. Chem. Theory Comput.,
     2021, 17, 4250-4261. DOI: 10.1021/acs.jctc.1c00471
   
   for ddCOSMO and CPCM-X implicit solvation:
   * M. Stahn, S. Ehlert, S. Grimme, J. Phys. Chem. A,
     2023, XX, XXXX-XXXX. DOI: 10.1021/acs.jpca.3c04382
   
   for DFT-D4:
   * E. Caldeweyher, C. Bannwarth and S. Grimme, J. Chem. Phys., 2017,
     147, 034112. DOI: 10.1063/1.4993215
   * E. Caldeweyher, S. Ehlert, A. Hansen, H. Neugebauer, S. Spicher,
     C. Bannwarth and S. Grimme, J. Chem. Phys., 2019, 150, 154122.
     DOI: 10.1063/1.5090222
   * E. Caldeweyher, J.-M. Mewes, S. Ehlert and S. Grimme, Phys. Chem. Chem. Phys.
     2020, 22, 8499-8512. DOI: 10.1039/D0CP00502A
   
   for sTDA-xTB:
   * S. Grimme and C. Bannwarth, J. Chem. Phys., 2016, 145, 054103.
     DOI: 10.1063/1.4959605
   
   in the mass-spec context:
   * V. Asgeirsson, C. Bauer and S. Grimme, Chem. Sci., 2017, 8, 4879.
     DOI: 10.1039/c7sc00601b
   * J. Koopman and S. Grimme, ACS Omega 2019, 4, 12, 15120-15133.
     DOI: 10.1021/acsomega.9b02011
   
   for metadynamics refer to:
   * S. Grimme, J. Chem. Theory Comput., 2019, 155, 2847-2862
     DOI: 10.1021/acs.jctc.9b00143
   
   for SPH calculations refer to:
   * S. Spicher and S. Grimme, J. Chem. Theory Comput., 2021, 17, 1701-1714
     DOI: 10.1021/acs.jctc.0c01306
   
   for ONIOM refer to:
   * C. Plett, A. Katbashev, S. Ehlert, S. Grimme, M. Bursch,
     Phys. Chem. Chem. Phys., 2023, 25, 17860-17868. DOI: 10.1039/D3CP02178E
   
   for DIPRO refer to:
   * J. Kohn, N. Gildemeister, S. Grimme, D. Fazzi, A. Hansen,
     J. Chem. Phys., 2023, just accepted.
   
   for PTB refer to:
   * S. Grimme, M. Mueller, A. Hansen, J. Chem. Phys., 2023, 158, 124111.
     DOI: 10.1063/5.0137838
   
   with help from (in alphabetical order)
   P. Atkinson, C. Bannwarth, F. Bohle, G. Brandenburg, E. Caldeweyher
   M. Checinski, S. Dohm, S. Ehlert, S. Ehrlich, I. Gerasimov, C. Hölzer
   A. Katbashev, J. Kohn, J. Koopman, C. Lavigne, S. Lehtola, F. März, M. Müller,
   F. Musil, H. Neugebauer, J. Pisarek, C. Plett, P. Pracht, F. Pultar,
   J. Seibert, P. Shushkov, S. Spicher, M. Stahn, M. Steiner, T. Strunk,
   J. Stückrath, T. Rose, and J. Unsleber
   
 * started run on 2026/06/19 at 18:52:34.153     
   ID    Z sym.   atoms
    1    6 C      1-11, 13, 18, 20, 22-25, 29, 31, 33, 34, 36-41, 43-50,
                  53-57, 59, 64-77
    2    8 O      12, 14-17, 19, 21, 26-28, 30, 32, 35, 42, 51, 52, 58, 60-63
    3    1 H      78-145

           -------------------------------------------------
          |                Calculation Setup                |
           -------------------------------------------------

          program call               : xtb PAPU-0079/conf01.xyz --gfn 2 --alpb water --chrg 0 --uhf 0 --namespace PAPU-0079/conf01_water
          hostname                   : cpu10
          calculation namespace      : PAPU-0079/conf01_water
          coordinate file            : PAPU-0079/conf01.xyz
          omp threads                :                    16


           -------------------------------------------------
          |                 G F N 2 - x T B                 |
           -------------------------------------------------

        Reference                      10.1021/acs.jctc.8b01176
      * Hamiltonian:
        H0-scaling (s, p, d)           1.850000    2.230000    2.230000
        zeta-weighting                 0.500000
      * Dispersion:
        s8                             2.700000
        a1                             0.520000
        a2                             5.000000
        s9                             5.000000
      * Repulsion:
        kExp                           1.500000    1.000000
        rExp                           1.000000
      * Coulomb:
        alpha                          2.000000
        third order                    shell-resolved
        anisotropic                    true
        a3                             3.000000
        a5                             4.000000
        cn-shift                       1.200000
        cn-exp                         4.000000
        max-rad                        5.000000

      * Solvation model:               ALPB
        Solvent                        water
        Parameter file                 internal GFN2-xTB/ALPB
        Dielectric constant                8.0200E+01
        Reference state                gsolv [1 M gas/solution]
        Free energy shift                  1.0808E-03 Eh       6.7819E-01 kcal/mol
        Temperature                        2.9815E+02 K
        Density                            1.0000E+00 kg/L
        Solvent mass                       1.8000E+01 g/mol
        Interaction kernel             P16
        Born radius scaling (c1)           1.4744E+00
        Born radii integrator          GBOBC
        Born offset                        0.0000E+00 a0       0.0000E+00 AA
        H-bond correction              true
        Ion screening                  false
        Surface tension                    1.0000E-05 Eh       1.5569E+01 dyn/cm
        Grid points                               230 per atom

          ...................................................
          :                      SETUP                      :
          :.................................................:
          :  # basis functions                 376          :
          :  # atomic orbitals                 376          :
          :  # shells                          222          :
          :  # electrons                       418          :
          :  max. iterations                   250          :
          :  Hamiltonian                  GFN2-xTB          :
          :  restarted?                      false          :
          :  GBSA solvation                   true          :
          :  PC potential                    false          :
          :  electronic temp.          300.0000000     K    :
          :  accuracy                    1.0000000          :
          :  -> integral cutoff          0.2500000E+02      :
          :  -> integral neglect         0.1000000E-07      :
          :  -> SCF convergence          0.1000000E-05 Eh   :
          :  -> wf. convergence          0.1000000E-03 e    :
          :  Broyden damping             0.4000000          :
          :  net charge                          0          :
          :  unpaired electrons                  0          :
          ...................................................

 iter      E             dE          RMSdq      gap      omega  full diag
   1   -242.4717458 -0.242472E+03  0.445E+00    2.56       0.0  T
   2   -242.6967739 -0.225028E+00  0.244E+00    2.03       1.0  T
   3   -242.6800571  0.167167E-01  0.982E-01    1.93       1.0  T
   4   -242.7169267 -0.368696E-01  0.304E-01    1.66       1.0  T
   5   -242.7224740 -0.554725E-02  0.130E-01    1.64       1.0  T
   6   -242.7231838 -0.709824E-03  0.661E-02    1.66       1.0  T
   7   -242.7233386 -0.154838E-03  0.287E-02    1.67       1.0  T
   8   -242.7233708 -0.321800E-04  0.136E-02    1.67       1.0  T
   9   -242.7233774 -0.660305E-05  0.635E-03    1.67       1.3  T
  10   -242.7233790 -0.152937E-05  0.409E-03    1.66       2.0  T
  11   -242.7233798 -0.814742E-06  0.196E-03    1.66       4.2  T
  12   -242.7233799 -0.131871E-06  0.928E-04    1.66       8.9  T
  13   -242.7233800 -0.435861E-07  0.429E-04    1.66      19.4  T

   *** convergence criteria satisfied after 13 iterations ***

         #    Occupation            Energy/Eh            Energy/eV
      -------------------------------------------------------------
         1        2.0000           -0.7754594             -21.1013
       ...           ...                  ...                  ...
       203        2.0000           -0.4023965             -10.9498
       204        2.0000           -0.3953078             -10.7569
       205        2.0000           -0.3919010             -10.6642
       206        2.0000           -0.3889693             -10.5844
       207        2.0000           -0.3873993             -10.5417
       208        2.0000           -0.3745878             -10.1931
       209        2.0000           -0.3660147              -9.9598 (HOMO)
       210                         -0.3049700              -8.2987 (LUMO)
       211                         -0.2915957              -7.9347
       212                         -0.2554757              -6.9518
       213                         -0.2474340              -6.7330
       214                         -0.2412977              -6.5660
       ...                                ...                  ...
       376                          0.7098191              19.3152
      -------------------------------------------------------------
                  HL-Gap            0.0610447 Eh            1.6611 eV
             Fermi-level           -0.3354924 Eh           -9.1292 eV

 SCC (total)                   0 d,  0 h,  0 min,  0.263 sec
 SCC setup                      ...        0 min,  0.003 sec (  1.142%)
 Dispersion                     ...        0 min,  0.005 sec (  1.729%)
 classical contributions        ...        0 min,  0.000 sec (  0.046%)
 integral evaluation            ...        0 min,  0.012 sec (  4.630%)
 iterations                     ...        0 min,  0.203 sec ( 76.894%)
 molecular gradient             ...        0 min,  0.039 sec ( 14.827%)
 printout                       ...        0 min,  0.002 sec (  0.717%)

         :::::::::::::::::::::::::::::::::::::::::::::::::::::
         ::                     SUMMARY                     ::
         :::::::::::::::::::::::::::::::::::::::::::::::::::::
         :: total energy            -240.028260795042 Eh    ::
         :: total w/o Gsasa/hb      -239.999684652647 Eh    ::
         :: gradient norm              0.120384207640 Eh/a0 ::
         :: HOMO-LUMO gap              1.661112083068 eV    ::
         ::.................................................::
         :: SCC energy              -242.706446353159 Eh    ::
         :: -> isotropic ES            0.536780357405 Eh    ::
         :: -> anisotropic ES         -0.029698439575 Eh    ::
         :: -> anisotropic XC          0.025465751664 Eh    ::
         :: -> dispersion             -0.210673376405 Eh    ::
         :: -> Gsolv                  -0.075808726577 Eh    ::
         ::    -> Gelec               -0.047232584182 Eh    ::
         ::    -> Gsasa                0.005881733495 Eh    ::
         ::    -> Ghb                 -0.035538635588 Eh    ::
         ::    -> Gshift               0.001080759698 Eh    ::
         :: repulsion energy           2.678185558118 Eh    ::
         :: add. restraining           0.000000000000 Eh    ::
         :: total charge               0.000000000000 e     ::
         :::::::::::::::::::::::::::::::::::::::::::::::::::::

           -------------------------------------------------
          |                Property Printout                |
           -------------------------------------------------

    * Orbital Energies and Occupations

         #    Occupation            Energy/Eh            Energy/eV
      -------------------------------------------------------------
         1        2.0000           -0.7754594             -21.1013
       ...           ...                  ...                  ...
       197        2.0000           -0.4151506             -11.2968
       198        2.0000           -0.4139126             -11.2631
       199        2.0000           -0.4117429             -11.2041
       200        2.0000           -0.4109448             -11.1824
       201        2.0000           -0.4092643             -11.1366
       202        2.0000           -0.4049341             -11.0188
       203        2.0000           -0.4023965             -10.9498
       204        2.0000           -0.3953078             -10.7569
       205        2.0000           -0.3919010             -10.6642
       206        2.0000           -0.3889693             -10.5844
       207        2.0000           -0.3873993             -10.5417
       208        2.0000           -0.3745878             -10.1931
       209        2.0000           -0.3660147              -9.9598 (HOMO)
       210                         -0.3049700              -8.2987 (LUMO)
       211                         -0.2915957              -7.9347
       212                         -0.2554757              -6.9518
       213                         -0.2474340              -6.7330
       214                         -0.2412977              -6.5660
       215                         -0.2356238              -6.4117
       216                         -0.2236874              -6.0868
       217                         -0.2156301              -5.8676
       218                         -0.2148717              -5.8470
       219                         -0.1954931              -5.3196
       220                         -0.1774089              -4.8275
       ...                                ...                  ...
       376                          0.7098191              19.3152
      -------------------------------------------------------------
                  HL-Gap            0.0610447 Eh            1.6611 eV
             Fermi-level           -0.3354924 Eh           -9.1292 eV

     #   Z          covCN         q      C6AA      α(0)
     1   6 C        2.841     0.143    24.889     8.176
     2   6 C        2.973    -0.040    29.001     8.834
     3   6 C        2.966     0.010    27.786     8.646
     4   6 C        2.928    -0.075    29.884     8.965
     5   6 C        2.838     0.143    24.873     8.173
     6   6 C        2.920    -0.101    30.541     9.063
     7   6 C        3.742     0.112    18.816     6.189
     8   6 C        3.719     0.103    19.001     6.226
     9   6 C        3.765     0.098    18.998     6.213
    10   6 C        3.765     0.101    18.961     6.207
    11   6 C        3.734     0.094    19.114     6.240
    12   8 O        1.695    -0.343    19.771     6.003
    13   6 C        3.681     0.074    19.538     6.330
    14   8 O        1.653    -0.512    23.157     6.496
    15   8 O        1.652    -0.489    22.664     6.427
    16   8 O        1.698    -0.330    19.526     5.966
    17   8 O        1.701    -0.306    19.094     5.900
    18   6 C        3.674     0.084    19.412     6.313
    19   8 O        1.653    -0.467    22.195     6.360
    20   6 C        3.652     0.239    17.163     5.949
    21   8 O        1.695    -0.363    20.135     6.058
    22   6 C        3.732     0.099    19.040     6.228
    23   6 C        3.722     0.080    19.358     6.283
    24   6 C        3.721     0.087    19.243     6.265
    25   6 C        3.769     0.081    19.272     6.256
    26   8 O        1.652    -0.494    22.754     6.439
    27   8 O        1.698    -0.337    19.647     5.984
    28   8 O        1.652    -0.465    22.146     6.353
    29   6 C        3.721     0.070    19.520     6.310
    30   8 O        1.703    -0.266    18.408     5.793
    31   6 C        2.741     0.354    20.986     7.501
    32   8 O        0.857    -0.459    22.898     6.416
    33   6 C        2.742     0.356    20.954     7.495
    34   6 C        2.895    -0.087    30.190     9.009
    35   8 O        0.857    -0.479    23.335     6.477
    36   6 C        2.905     0.010    27.801     8.646
    37   6 C        2.897    -0.041    29.018     8.832
    38   6 C        2.898    -0.009    28.236     8.712
    39   6 C        3.805    -0.080    22.030     6.682
    40   6 C        3.730     0.117    18.753     6.182
    41   6 C        2.894    -0.065    29.622     8.924
    42   8 O        1.651    -0.493    22.743     6.438
    43   6 C        2.899    -0.038    28.945     8.821
    44   6 C        2.898    -0.051    29.253     8.868
    45   6 C        2.895    -0.041    29.021     8.833
    46   6 C        3.805    -0.060    21.652     6.624
    47   6 C        3.802    -0.055    21.561     6.611
    48   6 C        3.800    -0.058    21.623     6.621
    49   6 C        3.799    -0.052    21.509     6.603
    50   6 C        3.751    -0.105    22.568     6.775
    51   8 O        1.656    -0.427    21.387     6.243
    52   8 O        1.657    -0.453    21.913     6.319
    53   6 C        3.665     0.238    17.135     5.937
    54   6 C        3.721     0.083    19.305     6.275
    55   6 C        3.723     0.093    19.149     6.249
    56   6 C        3.720     0.093    19.152     6.251
    57   6 C        3.742     0.101    18.981     6.216
    58   8 O        1.696    -0.358    20.047     6.045
    59   6 C        3.674     0.075    19.543     6.335
    60   8 O        1.653    -0.492    22.719     6.434
    61   8 O        1.654    -0.495    22.794     6.445
    62   8 O        1.651    -0.482    22.508     6.404
    63   8 O        1.654    -0.490    22.673     6.428
    64   6 C        2.962    -0.032    28.789     8.801
    65   6 C        2.986     0.010    27.787     8.647
    66   6 C        2.980     0.009    27.803     8.649
    67   6 C        2.981     0.013    27.720     8.636
    68   6 C        2.986     0.018    27.597     8.617
    69   6 C        2.923    -0.025    28.631     8.775
    70   6 C        2.921    -0.034    28.838     8.806
    71   6 C        2.919    -0.028    28.708     8.786
    72   6 C        2.919    -0.031    28.781     8.798
    73   6 C        2.925    -0.031    28.781     8.798
    74   6 C        2.925    -0.050    29.229     8.866
    75   6 C        2.919    -0.030    28.745     8.792
    76   6 C        2.920    -0.030    28.760     8.794
    77   6 C        2.922    -0.035    28.866     8.811
    78   1 H        0.926     0.064     2.157     2.297
    79   1 H        0.926     0.069     2.098     2.265
    80   1 H        0.923     0.056     2.246     2.344
    81   1 H        0.923     0.044     2.397     2.421
    82   1 H        0.923     0.076     2.022     2.224
    83   1 H        0.923     0.050     2.319     2.381
    84   1 H        0.923     0.047     2.352     2.399
    85   1 H        0.924     0.033     2.544     2.495
    86   1 H        0.924     0.045     2.383     2.414
    87   1 H        0.804     0.358     0.569     1.185
    88   1 H        0.803     0.347     0.597     1.213
    89   1 H        0.924     0.061     2.187     2.313
    90   1 H        0.924     0.019     2.756     2.596
    91   1 H        0.802     0.318     0.670     1.286
    92   1 H        0.923     0.058     2.222     2.331
    93   1 H        0.923     0.056     2.245     2.343
    94   1 H        0.923     0.087     1.910     2.161
    95   1 H        0.923     0.064     2.152     2.294
    96   1 H        0.924     0.068     2.109     2.271
    97   1 H        0.803     0.369     0.545     1.160
    98   1 H        0.802     0.328     0.643     1.260
    99   1 H        0.924     0.084     1.935     2.176
   100   1 H        0.924     0.094     1.837     2.120
   101   1 H        0.926     0.095     1.832     2.116
   102   1 H        0.926     0.062     2.171     2.304
   103   1 H        0.926     0.070     2.087     2.259
   104   1 H        0.926     0.069     2.092     2.262
   105   1 H        0.924     0.061     2.190     2.314
   106   1 H        0.924     0.077     2.014     2.219
   107   1 H        0.923     0.056     2.246     2.344
   108   1 H        0.926     0.044     2.390     2.418
   109   1 H        0.802     0.319     0.668     1.284
   110   1 H        0.926     0.041     2.436     2.441
   111   1 H        0.926     0.047     2.359     2.402
   112   1 H        0.926     0.032     2.562     2.503
   113   1 H        0.924     0.040     2.451     2.448
   114   1 H        0.924     0.039     2.465     2.455
   115   1 H        0.924     0.024     2.673     2.557
   116   1 H        0.924     0.032     2.556     2.500
   117   1 H        0.924     0.032     2.552     2.498
   118   1 H        0.924     0.028     2.615     2.529
   119   1 H        0.924     0.027     2.628     2.535
   120   1 H        0.924     0.024     2.676     2.558
   121   1 H        0.924     0.028     2.621     2.532
   122   1 H        0.924     0.039     2.465     2.455
   123   1 H        0.924     0.037     2.487     2.466
   124   1 H        0.803     0.341     0.610     1.227
   125   1 H        0.804     0.378     0.526     1.140
   126   1 H        0.923     0.030     2.584     2.514
   127   1 H        0.924     0.073     2.057     2.243
   128   1 H        0.923     0.037     2.492     2.469
   129   1 H        0.923     0.054     2.273     2.358
   130   1 H        0.923     0.034     2.527     2.486
   131   1 H        0.924     0.061     2.188     2.313
   132   1 H        0.924     0.053     2.280     2.361
   133   1 H        0.803     0.377     0.528     1.142
   134   1 H        0.804     0.375     0.533     1.147
   135   1 H        0.802     0.343     0.605     1.222
   136   1 H        0.803     0.367     0.550     1.165
   137   1 H        0.926     0.073     2.051     2.239
   138   1 H        0.926     0.050     2.318     2.381
   139   1 H        0.926     0.052     2.295     2.369
   140   1 H        0.926     0.050     2.320     2.382
   141   1 H        0.926     0.050     2.317     2.380
   142   1 H        0.926     0.048     2.339     2.391
   143   1 H        0.926     0.032     2.554     2.499
   144   1 H        0.926     0.047     2.354     2.399
   145   1 H        0.926     0.053     2.284     2.363

 Mol. C6AA /au·bohr⁶  :     215439.048187
 Mol. C8AA /au·bohr⁸  :    4980616.159468
 Mol. α(0) /au        :        703.407265


Wiberg/Mayer (AO) data.
largest (>0.10) Wiberg bond orders for each atom

 ---------------------------------------------------------------------------
     #   Z sym  total        # sym  WBO       # sym  WBO       # sym  WBO
 ---------------------------------------------------------------------------
     1   6 C    3.944 --     6 C    1.380     2 C    1.337    51 O    1.080
     2   6 C    3.975 --     3 C    1.389     1 C    1.337     7 C    0.990
     3   6 C    3.988 --     4 C    1.430     2 C    1.389    13 C    1.003
     4   6 C    3.983 --     3 C    1.430     5 C    1.357    78 H    0.964
     5   6 C    3.944 --     6 C    1.385     4 C    1.357    52 O    1.074
     6   6 C    3.976 --     5 C    1.385     1 C    1.380    79 H    0.962
     7   6 C    3.934 --     2 C    0.990    80 H    0.953     8 C    0.951
                            12 O    0.949
     8   6 C    3.956 --    15 O    1.003     9 C    0.960    81 H    0.960
                             7 C    0.951
     9   6 C    3.915 --    10 C    0.963     8 C    0.960    82 H    0.935
                            17 O    0.933
    10   6 C    3.937 --     9 C    0.963    11 C    0.961    16 O    0.960
                            83 H    0.942
    11   6 C    3.948 --    18 C    0.983    12 O    0.961    10 C    0.961
                            84 H    0.949
    12   8 O    2.080 --    11 C    0.961     7 C    0.949
    13   6 C    3.954 --     3 C    1.003    14 O    0.982    85 H    0.971
                            86 H    0.955
    14   8 O    1.905 --    13 C    0.982    87 H    0.858
    15   8 O    1.931 --     8 C    1.003    88 H    0.833
    16   8 O    2.086 --    20 C    0.988    10 C    0.960
    17   8 O    2.256 --    33 C    1.063     9 C    0.933    35 O    0.132
    18   6 C    3.962 --    19 O    1.010    11 C    0.983    90 H    0.960
                            89 H    0.960
    19   8 O    1.940 --    18 C    1.010    91 H    0.850
    20   6 C    3.920 --    16 O    0.988    25 C    0.953    21 O    0.953
                            92 H    0.951
    21   8 O    2.067 --    20 C    0.953    22 C    0.945
    22   6 C    3.931 --    29 C    0.983    23 C    0.960    93 H    0.957
                            21 O    0.945
    23   6 C    3.957 --    28 O    1.008    24 C    0.966    22 C    0.960
                            94 H    0.955
    24   6 C    3.958 --    26 O    0.997    23 C    0.966    25 C    0.961
                            95 H    0.959
    25   6 C    3.936 --    27 O    0.961    24 C    0.961    20 C    0.953
                            96 H    0.929
    26   8 O    1.943 --    24 C    0.997    97 H    0.835
    27   8 O    2.080 --    53 C    0.983    25 C    0.961
    28   8 O    1.967 --    23 C    1.008    98 H    0.847
    29   6 C    3.919 --    22 C    0.983   100 H    0.959    99 H    0.954
                            30 O    0.954
    30   8 O    2.298 --    31 C    1.107    29 C    0.954    32 O    0.152
    31   6 C    3.893 --    32 O    1.672    30 O    1.107    64 C    1.015
    32   8 O    2.008 --    31 C    1.672    30 O    0.152
    33   6 C    3.889 --    35 O    1.635    34 C    1.072    17 O    1.063
    34   6 C    3.960 --    36 C    1.713    33 C    1.072   101 H    0.952
                            38 C    0.110
    35   8 O    1.997 --    33 C    1.635    17 O    0.132
    36   6 C    3.974 --    34 C    1.713    37 C    1.156   102 H    0.956
    37   6 C    3.984 --    38 C    1.771    36 C    1.156   103 H    0.957
    38   6 C    3.970 --    37 C    1.771    39 C    1.046   104 H    0.956
                            34 C    0.110
    39   6 C    3.990 --    38 C    1.046   105 H    0.971    40 C    0.953
                           106 H    0.953
    40   6 C    3.945 --    41 C    1.003    42 O    0.980    39 C    0.953
                           107 H    0.947
    41   6 C    3.978 --    43 C    1.838    40 C    1.003   108 H    0.962
                            45 C    0.130
    42   8 O    1.938 --    40 C    0.980   109 H    0.852
    43   6 C    3.991 --    41 C    1.838    44 C    1.123   110 H    0.960
    44   6 C    3.988 --    45 C    1.828    43 C    1.123   111 H    0.960
    45   6 C    3.989 --    44 C    1.828    46 C    1.029   112 H    0.964
                            41 C    0.130
    46   6 C    3.995 --    45 C    1.029    47 C    0.984   113 H    0.971
                           114 H    0.971
    47   6 C    3.988 --    48 C    1.006    46 C    0.984   115 H    0.972
                           116 H    0.968
    48   6 C    3.996 --    49 C    1.006    47 C    1.006   117 H    0.976
                           118 H    0.975
    49   6 C    3.995 --    50 C    1.021    48 C    1.006   119 H    0.975
                           120 H    0.973
    50   6 C    3.996 --    49 C    1.021   123 H    0.987   122 H    0.986
                           121 H    0.984
    51   8 O    2.097 --     1 C    1.080   124 H    0.836
    52   8 O    2.069 --     5 C    1.074   125 H    0.838
    53   6 C    3.915 --    27 O    0.983    54 C    0.958    58 O    0.948
                           126 H    0.941
    54   6 C    3.956 --    62 O    0.999    55 C    0.962    53 C    0.958
                           127 H    0.957
    55   6 C    3.963 --    61 O    1.000    56 C    0.968    54 C    0.962
                           128 H    0.959
    56   6 C    3.962 --    60 O    1.000    55 C    0.968    57 C    0.967
                           129 H    0.957
    57   6 C    3.937 --    59 C    0.983    56 C    0.967   130 H    0.956
                            58 O    0.954
    58   8 O    2.071 --    57 C    0.954    53 C    0.948
    59   6 C    3.961 --    63 O    1.011    57 C    0.983   132 H    0.968
                           131 H    0.963
    60   8 O    1.936 --    56 C    1.000   133 H    0.829
    61   8 O    1.923 --    55 C    1.000   134 H    0.841
    62   8 O    1.933 --    54 C    0.999   135 H    0.850
    63   8 O    1.946 --    59 C    1.011   136 H    0.823
    64   6 C    3.979 --    69 C    1.572    65 C    1.155    31 C    1.015
    65   6 C    3.987 --    74 C    1.323    66 C    1.295    64 C    1.155
    66   6 C    3.988 --    77 C    1.329    65 C    1.295    67 C    1.152
    67   6 C    3.988 --    70 C    1.333    68 C    1.284    66 C    1.152
    68   6 C    3.989 --    73 C    1.304    67 C    1.284    69 C    1.220
    69   6 C    3.982 --    64 C    1.572    68 C    1.220   137 H    0.954
    70   6 C    3.990 --    71 C    1.508    67 C    1.333   138 H    0.961
                            73 C    0.112
    71   6 C    3.976 --    70 C    1.508    72 C    1.358   139 H    0.969
    72   6 C    3.984 --    73 C    1.520    71 C    1.358   140 H    0.969
    73   6 C    3.982 --    72 C    1.520    68 C    1.304   141 H    0.966
                            70 C    0.112
    74   6 C    3.983 --    75 C    1.507    65 C    1.323   142 H    0.951
                            77 C    0.112
    75   6 C    3.984 --    74 C    1.507    76 C    1.363   143 H    0.970
    76   6 C    3.985 --    77 C    1.508    75 C    1.363   144 H    0.969
    77   6 C    3.990 --    76 C    1.508    66 C    1.329   145 H    0.960
                            74 C    0.112
    78   1 H    0.995 --     4 C    0.964
    79   1 H    0.995 --     6 C    0.962
    80   1 H    0.996 --     7 C    0.953
    81   1 H    0.998 --     8 C    0.960
    82   1 H    0.993 --     9 C    0.935
    83   1 H    0.997 --    10 C    0.942
    84   1 H    0.998 --    11 C    0.949
    85   1 H    0.999 --    13 C    0.971
    86   1 H    0.998 --    13 C    0.955
    87   1 H    0.871 --    14 O    0.858
    88   1 H    0.880 --    15 O    0.833
    89   1 H    0.996 --    18 C    0.960
    90   1 H    0.999 --    18 C    0.960
    91   1 H    0.899 --    19 O    0.850
    92   1 H    0.996 --    20 C    0.951
    93   1 H    0.997 --    22 C    0.957
    94   1 H    0.992 --    23 C    0.955
    95   1 H    0.996 --    24 C    0.959
    96   1 H    0.995 --    25 C    0.929
    97   1 H    0.864 --    26 O    0.835
    98   1 H    0.892 --    28 O    0.847
    99   1 H    0.993 --    29 C    0.954
   100   1 H    0.990 --    29 C    0.959
   101   1 H    0.991 --    34 C    0.952
   102   1 H    0.996 --    36 C    0.956
   103   1 H    0.995 --    37 C    0.957
   104   1 H    0.995 --    38 C    0.956
   105   1 H    0.996 --    39 C    0.971
   106   1 H    0.987 --    39 C    0.953
   107   1 H    0.995 --    40 C    0.947
   108   1 H    0.998 --    41 C    0.962
   109   1 H    0.898 --    42 O    0.852
   110   1 H    0.998 --    43 C    0.960
   111   1 H    0.998 --    44 C    0.960
   112   1 H    0.999 --    45 C    0.964
   113   1 H    0.998 --    46 C    0.971
   114   1 H    0.996 --    46 C    0.971
   115   1 H    0.999 --    47 C    0.972
   116   1 H    0.999 --    47 C    0.968
   117   1 H    0.999 --    48 C    0.976
   118   1 H    0.999 --    48 C    0.975
   119   1 H    0.999 --    49 C    0.975
   120   1 H    0.999 --    49 C    0.973
   121   1 H    0.999 --    50 C    0.984
   122   1 H    0.998 --    50 C    0.986
   123   1 H    0.999 --    50 C    0.987
   124   1 H    0.883 --    51 O    0.836
   125   1 H    0.856 --    52 O    0.838
   126   1 H    0.999 --    53 C    0.941
   127   1 H    0.995 --    54 C    0.957
   128   1 H    0.999 --    55 C    0.959
   129   1 H    0.997 --    56 C    0.957
   130   1 H    0.999 --    57 C    0.956
   131   1 H    0.996 --    59 C    0.963
   132   1 H    0.997 --    59 C    0.968
   133   1 H    0.858 --    60 O    0.829
   134   1 H    0.859 --    61 O    0.841
   135   1 H    0.882 --    62 O    0.850
   136   1 H    0.865 --    63 O    0.823
   137   1 H    0.993 --    69 C    0.954
   138   1 H    0.997 --    70 C    0.961
   139   1 H    0.997 --    71 C    0.969
   140   1 H    0.997 --    72 C    0.969
   141   1 H    0.997 --    73 C    0.966
   142   1 H    0.997 --    74 C    0.951
   143   1 H    0.998 --    75 C    0.970
   144   1 H    0.997 --    76 C    0.969
   145   1 H    0.996 --    77 C    0.960
 ---------------------------------------------------------------------------

Topologies differ in total number of bonds
Writing topology from bond orders to xtbtopo.mol

molecular dipole:
                 x           y           z       tot (Debye)
 q only:        0.000      -2.085       0.570
   full:        0.964      -2.963       0.233       7.942
molecular quadrupole (traceless):
                xx          xy          yy          xz          yz          zz
 q only:       18.492     -25.875     -14.996      12.724      -1.805      -3.496
  q+dip:       18.710     -34.269     -21.678      16.121      -3.701       2.968
   full:       17.770     -32.622     -23.177      18.192      -0.098       5.407


           -------------------------------------------------
          | TOTAL ENERGY             -240.028260795042 Eh   |
          | GRADIENT NORM               0.120384207640 Eh/α |
          | HOMO-LUMO GAP               1.661112083068 eV   |
           -------------------------------------------------

------------------------------------------------------------------------
 * finished run on 2026/06/19 at 18:52:34.471     
------------------------------------------------------------------------
 total:
 * wall-time:     0 d,  0 h,  0 min,  0.318 sec
 *  cpu-time:     0 d,  0 h,  0 min,  4.889 sec
 * ratio c/w:    15.376 speedup
 SCF:
 * wall-time:     0 d,  0 h,  0 min,  0.264 sec
 *  cpu-time:     0 d,  0 h,  0 min,  4.203 sec
 * ratio c/w:    15.912 speedup

normal termination of xtb
