      -----------------------------------------------------------      
     |                   =====================                   |     
     |                           x T B                           |     
     |                   =====================                   |     
     |                         S. Grimme                         |     
     |          Mulliken Center for Theoretical Chemistry        |     
     |                    University of Bonn                     |     
      -----------------------------------------------------------      

   * xtb version 6.7.1 (edcfbbe) compiled by 'albert@albert-system' on 2024-07-22

   xtb is free software: you can redistribute it and/or modify it under
   the terms of the GNU Lesser General Public License as published by
   the Free Software Foundation, either version 3 of the License, or
   (at your option) any later version.
   
   xtb is distributed in the hope that it will be useful,
   but WITHOUT ANY WARRANTY; without even the implied warranty of
   MERCHANTABILITY or FITNESS FOR A PARTICULAR PURPOSE.  See the
   GNU Lesser General Public License for more details.
   
   Cite this work as:
   * C. Bannwarth, E. Caldeweyher, S. Ehlert, A. Hansen, P. Pracht,
     J. Seibert, S. Spicher, S. Grimme, WIREs Comput. Mol. Sci., 2020, 11,
     e01493. DOI: 10.1002/wcms.1493
   
   for GFN2-xTB:
   * C. Bannwarth, S. Ehlert and S. Grimme., J. Chem. Theory Comput., 2019,
     15, 1652-1671. DOI: 10.1021/acs.jctc.8b01176
   for GFN1-xTB:
   * S. Grimme, C. Bannwarth, P. Shushkov, J. Chem. Theory Comput., 2017,
     13, 1989-2009. DOI: 10.1021/acs.jctc.7b00118
   for GFN0-xTB:
   * P. Pracht, E. Caldeweyher, S. Ehlert, S. Grimme, ChemRxiv, 2019, preprint.
     DOI: 10.26434/chemrxiv.8326202.v1
   for GFN-FF:
   * S. Spicher and S. Grimme, Angew. Chem. Int. Ed., 2020, 59, 15665-15673.
     DOI: 10.1002/anie.202004239
   
   for ALPB and GBSA implicit solvation:
   * S. Ehlert, M. Stahn, S. Spicher, S. Grimme, J. Chem. Theory Comput.,
     2021, 17, 4250-4261. DOI: 10.1021/acs.jctc.1c00471
   
   for ddCOSMO and CPCM-X implicit solvation:
   * M. Stahn, S. Ehlert, S. Grimme, J. Phys. Chem. A,
     2023, XX, XXXX-XXXX. DOI: 10.1021/acs.jpca.3c04382
   
   for DFT-D4:
   * E. Caldeweyher, C. Bannwarth and S. Grimme, J. Chem. Phys., 2017,
     147, 034112. DOI: 10.1063/1.4993215
   * E. Caldeweyher, S. Ehlert, A. Hansen, H. Neugebauer, S. Spicher,
     C. Bannwarth and S. Grimme, J. Chem. Phys., 2019, 150, 154122.
     DOI: 10.1063/1.5090222
   * E. Caldeweyher, J.-M. Mewes, S. Ehlert and S. Grimme, Phys. Chem. Chem. Phys.
     2020, 22, 8499-8512. DOI: 10.1039/D0CP00502A
   
   for sTDA-xTB:
   * S. Grimme and C. Bannwarth, J. Chem. Phys., 2016, 145, 054103.
     DOI: 10.1063/1.4959605
   
   in the mass-spec context:
   * V. Asgeirsson, C. Bauer and S. Grimme, Chem. Sci., 2017, 8, 4879.
     DOI: 10.1039/c7sc00601b
   * J. Koopman and S. Grimme, ACS Omega 2019, 4, 12, 15120-15133.
     DOI: 10.1021/acsomega.9b02011
   
   for metadynamics refer to:
   * S. Grimme, J. Chem. Theory Comput., 2019, 155, 2847-2862
     DOI: 10.1021/acs.jctc.9b00143
   
   for SPH calculations refer to:
   * S. Spicher and S. Grimme, J. Chem. Theory Comput., 2021, 17, 1701-1714
     DOI: 10.1021/acs.jctc.0c01306
   
   for ONIOM refer to:
   * C. Plett, A. Katbashev, S. Ehlert, S. Grimme, M. Bursch,
     Phys. Chem. Chem. Phys., 2023, 25, 17860-17868. DOI: 10.1039/D3CP02178E
   
   for DIPRO refer to:
   * J. Kohn, N. Gildemeister, S. Grimme, D. Fazzi, A. Hansen,
     J. Chem. Phys., 2023, just accepted.
   
   for PTB refer to:
   * S. Grimme, M. Mueller, A. Hansen, J. Chem. Phys., 2023, 158, 124111.
     DOI: 10.1063/5.0137838
   
   with help from (in alphabetical order)
   P. Atkinson, C. Bannwarth, F. Bohle, G. Brandenburg, E. Caldeweyher
   M. Checinski, S. Dohm, S. Ehlert, S. Ehrlich, I. Gerasimov, C. Hölzer
   A. Katbashev, J. Kohn, J. Koopman, C. Lavigne, S. Lehtola, F. März, M. Müller,
   F. Musil, H. Neugebauer, J. Pisarek, C. Plett, P. Pracht, F. Pultar,
   J. Seibert, P. Shushkov, S. Spicher, M. Stahn, M. Steiner, T. Strunk,
   J. Stückrath, T. Rose, and J. Unsleber
   
 * started run on 2026/06/19 at 18:52:06.458     
   ID    Z sym.   atoms
    1    6 C      1, 2, 4-11, 13-18, 21, 23-27, 31, 33-37, 42, 45-52, 55-64
    2    8 O      3, 12, 19, 20, 22, 28-30, 32, 38-41, 43, 44, 53, 54
    3    1 H      65-128

           -------------------------------------------------
          |                Calculation Setup                |
           -------------------------------------------------

          program call               : xtb PAPU-0002/conf02.xyz --gfn 2 --alpb octanol --chrg 0 --uhf 0 --namespace PAPU-0002/conf02_octanol
          hostname                   : cpu10
          calculation namespace      : PAPU-0002/conf02_octanol
          coordinate file            : PAPU-0002/conf02.xyz
          omp threads                :                    16


           -------------------------------------------------
          |                 G F N 2 - x T B                 |
           -------------------------------------------------

        Reference                      10.1021/acs.jctc.8b01176
      * Hamiltonian:
        H0-scaling (s, p, d)           1.850000    2.230000    2.230000
        zeta-weighting                 0.500000
      * Dispersion:
        s8                             2.700000
        a1                             0.520000
        a2                             5.000000
        s9                             5.000000
      * Repulsion:
        kExp                           1.500000    1.000000
        rExp                           1.000000
      * Coulomb:
        alpha                          2.000000
        third order                    shell-resolved
        anisotropic                    true
        a3                             3.000000
        a5                             4.000000
        cn-shift                       1.200000
        cn-exp                         4.000000
        max-rad                        5.000000

      * Solvation model:               ALPB
        Solvent                        octanol
        Parameter file                 internal GFN2-xTB/ALPB
        Dielectric constant                9.8629E+00
        Reference state                gsolv [1 M gas/solution]
        Free energy shift                  2.3397E-03 Eh       1.4682E+00 kcal/mol
        Temperature                        2.9815E+02 K
        Density                            8.3000E-01 kg/L
        Solvent mass                       1.3023E+02 g/mol
        Interaction kernel             P16
        Born radius scaling (c1)           1.5898E+00
        Born radii integrator          GBOBC
        Born offset                        0.0000E+00 a0       0.0000E+00 AA
        H-bond correction              true
        Ion screening                  false
        Surface tension                    1.0000E-05 Eh       1.5569E+01 dyn/cm
        Grid points                               230 per atom

          ...................................................
          :                      SETUP                      :
          :.................................................:
          :  # basis functions                 320          :
          :  # atomic orbitals                 320          :
          :  # shells                          192          :
          :  # electrons                       354          :
          :  max. iterations                   250          :
          :  Hamiltonian                  GFN2-xTB          :
          :  restarted?                      false          :
          :  GBSA solvation                   true          :
          :  PC potential                    false          :
          :  electronic temp.          300.0000000     K    :
          :  accuracy                    1.0000000          :
          :  -> integral cutoff          0.2500000E+02      :
          :  -> integral neglect         0.1000000E-07      :
          :  -> SCF convergence          0.1000000E-05 Eh   :
          :  -> wf. convergence          0.1000000E-03 e    :
          :  Broyden damping             0.4000000          :
          :  net charge                          0          :
          :  unpaired electrons                  0          :
          ...................................................

 iter      E             dE          RMSdq      gap      omega  full diag
   1   -204.4502319 -0.204450E+03  0.431E+00    2.18       0.0  T
   2   -204.6698889 -0.219657E+00  0.237E+00    1.78       1.0  T
   3   -204.6539238  0.159651E-01  0.109E+00    1.73       1.0  T
   4   -204.6909196 -0.369959E-01  0.337E-01    1.59       1.0  T
   5   -204.6976323 -0.671268E-02  0.138E-01    1.57       1.0  T
   6   -204.6987382 -0.110588E-02  0.626E-02    1.58       1.0  T
   7   -204.6988448 -0.106628E-03  0.287E-02    1.59       1.0  T
   8   -204.6988719 -0.270357E-04  0.115E-02    1.60       1.0  T
   9   -204.6988775 -0.562260E-05  0.554E-03    1.60       1.6  T
  10   -204.6988787 -0.124576E-05  0.254E-03    1.60       3.5  T
  11   -204.6988789 -0.197958E-06  0.128E-03    1.59       6.9  T
  12   -204.6988790 -0.255124E-07  0.591E-04    1.59      14.9  T
  13   -204.6988790 -0.167395E-07  0.251E-04    1.59      35.2  T

   *** convergence criteria satisfied after 13 iterations ***

         #    Occupation            Energy/Eh            Energy/eV
      -------------------------------------------------------------
         1        2.0000           -0.7657378             -20.8368
       ...           ...                  ...                  ...
       171        2.0000           -0.4047866             -11.0148
       172        2.0000           -0.4031748             -10.9709
       173        2.0000           -0.4007450             -10.9048
       174        2.0000           -0.3973581             -10.8127
       175        2.0000           -0.3949182             -10.7463
       176        2.0000           -0.3913867             -10.6502
       177        2.0000           -0.3650368              -9.9332 (HOMO)
       178                         -0.3064304              -8.3384 (LUMO)
       179                         -0.3043166              -8.2809
       180                         -0.2428871              -6.6093
       181                         -0.2405733              -6.5463
       182                         -0.2377436              -6.4693
       ...                                ...                  ...
       320                          0.6931083              18.8604
      -------------------------------------------------------------
                  HL-Gap            0.0586064 Eh            1.5948 eV
             Fermi-level           -0.3357336 Eh           -9.1358 eV

 SCC (total)                   0 d,  0 h,  0 min,  0.197 sec
 SCC setup                      ...        0 min,  0.003 sec (  1.461%)
 Dispersion                     ...        0 min,  0.003 sec (  1.374%)
 classical contributions        ...        0 min,  0.000 sec (  0.050%)
 integral evaluation            ...        0 min,  0.009 sec (  4.511%)
 iterations                     ...        0 min,  0.153 sec ( 77.425%)
 molecular gradient             ...        0 min,  0.029 sec ( 14.881%)
 printout                       ...        0 min,  0.001 sec (  0.279%)

         :::::::::::::::::::::::::::::::::::::::::::::::::::::
         ::                     SUMMARY                     ::
         :::::::::::::::::::::::::::::::::::::::::::::::::::::
         :: total energy            -202.417111987228 Eh    ::
         :: total w/o Gsasa/hb      -202.349663476500 Eh    ::
         :: gradient norm              0.120181745311 Eh/a0 ::
         :: HOMO-LUMO gap              1.594761631141 eV    ::
         ::.................................................::
         :: SCC energy              -204.690077035533 Eh    ::
         :: -> isotropic ES            0.448614955842 Eh    ::
         :: -> anisotropic ES         -0.011583616009 Eh    ::
         :: -> anisotropic XC          0.029844119360 Eh    ::
         :: -> dispersion             -0.162592519557 Eh    ::
         :: -> Gsolv                  -0.099246017249 Eh    ::
         ::    -> Gelec               -0.031797506521 Eh    ::
         ::    -> Gsasa               -0.029180548686 Eh    ::
         ::    -> Ghb                 -0.040607631418 Eh    ::
         ::    -> Gshift               0.002339669376 Eh    ::
         :: repulsion energy           2.272965048305 Eh    ::
         :: add. restraining           0.000000000000 Eh    ::
         :: total charge              -0.000000000000 e     ::
         :::::::::::::::::::::::::::::::::::::::::::::::::::::

           -------------------------------------------------
          |                Property Printout                |
           -------------------------------------------------

    * Orbital Energies and Occupations

         #    Occupation            Energy/Eh            Energy/eV
      -------------------------------------------------------------
         1        2.0000           -0.7657378             -20.8368
       ...           ...                  ...                  ...
       165        2.0000           -0.4185034             -11.3881
       166        2.0000           -0.4149737             -11.2920
       167        2.0000           -0.4145651             -11.2809
       168        2.0000           -0.4087114             -11.1216
       169        2.0000           -0.4075788             -11.0908
       170        2.0000           -0.4063626             -11.0577
       171        2.0000           -0.4047866             -11.0148
       172        2.0000           -0.4031748             -10.9709
       173        2.0000           -0.4007450             -10.9048
       174        2.0000           -0.3973581             -10.8127
       175        2.0000           -0.3949182             -10.7463
       176        2.0000           -0.3913867             -10.6502
       177        2.0000           -0.3650368              -9.9332 (HOMO)
       178                         -0.3064304              -8.3384 (LUMO)
       179                         -0.3043166              -8.2809
       180                         -0.2428871              -6.6093
       181                         -0.2405733              -6.5463
       182                         -0.2377436              -6.4693
       183                         -0.2350513              -6.3961
       184                         -0.2253364              -6.1317
       185                         -0.1823863              -4.9630
       186                         -0.1756768              -4.7804
       187                         -0.1413916              -3.8475
       188                         -0.1327885              -3.6134
       ...                                ...                  ...
       320                          0.6931083              18.8604
      -------------------------------------------------------------
                  HL-Gap            0.0586064 Eh            1.5948 eV
             Fermi-level           -0.3357336 Eh           -9.1358 eV

     #   Z          covCN         q      C6AA      α(0)
     1   6 C        2.772     0.353    21.016     7.508
     2   6 C        2.898    -0.086    30.145     9.002
     3   8 O        0.858    -0.464    23.007     6.431
     4   6 C        2.898    -0.003    28.107     8.692
     5   6 C        2.900    -0.037    28.917     8.817
     6   6 C        2.900    -0.022    28.564     8.763
     7   6 C        2.894    -0.032    28.785     8.797
     8   6 C        2.896    -0.052    29.290     8.873
     9   6 C        3.729     0.108    18.893     6.205
    10   6 C        3.800    -0.071    21.855     6.656
    11   6 C        3.751    -0.111    22.677     6.791
    12   8 O        1.652    -0.485    22.576     6.414
    13   6 C        2.999     0.002    27.960     8.674
    14   6 C        2.920    -0.096    30.412     9.043
    15   6 C        2.839     0.154    24.662     8.138
    16   6 C        2.924    -0.104    30.613     9.073
    17   6 C        2.835     0.149    24.764     8.155
    18   6 C        3.022    -0.043    29.032     8.838
    19   8 O        1.657    -0.442    21.689     6.287
    20   8 O        1.657    -0.429    21.424     6.248
    21   6 C        3.738     0.261    16.678     5.827
    22   8 O        1.694    -0.370    20.271     6.079
    23   6 C        3.754     0.072    19.428     6.285
    24   6 C        3.721     0.095    19.110     6.243
    25   6 C        3.766     0.105    18.890     6.195
    26   6 C        3.733     0.091    19.156     6.247
    27   6 C        3.750     0.091    19.132     6.238
    28   8 O        1.695    -0.357    20.020     6.041
    29   8 O        1.697    -0.296    18.930     5.874
    30   8 O        1.702    -0.280    18.648     5.830
    31   6 C        3.622     0.236    17.318     5.999
    32   8 O        1.695    -0.357    20.022     6.041
    33   6 C        3.736     0.091    19.146     6.244
    34   6 C        3.722     0.075    19.428     6.295
    35   6 C        3.724     0.082    19.317     6.276
    36   6 C        3.721     0.086    19.260     6.268
    37   6 C        3.752     0.082    19.279     6.262
    38   8 O        1.703    -0.278    18.609     5.824
    39   8 O        1.651    -0.471    22.276     6.371
    40   8 O        1.653    -0.496    22.806     6.447
    41   8 O        1.653    -0.473    22.323     6.378
    42   6 C        3.676     0.068    19.652     6.352
    43   8 O        1.654    -0.471    22.273     6.371
    44   8 O        1.652    -0.499    22.867     6.455
    45   6 C        2.739     0.368    20.762     7.460
    46   6 C        2.897    -0.084    30.095     8.995
    47   6 C        2.901     0.004    27.941     8.667
    48   6 C        2.899    -0.036    28.884     8.812
    49   6 C        2.893    -0.026    28.652     8.776
    50   6 C        3.806    -0.073    21.883     6.659
    51   6 C        3.729     0.119    18.731     6.179
    52   6 C        2.941    -0.015    28.392     8.739
    53   8 O        0.858    -0.489    23.543     6.505
    54   8 O        1.652    -0.498    22.846     6.452
    55   6 C        2.904    -0.058    29.437     8.896
    56   6 C        3.757    -0.120    22.847     6.815
    57   6 C        2.894    -0.051    29.266     8.870
    58   6 C        2.896    -0.039    28.970     8.825
    59   6 C        3.805    -0.066    21.762     6.641
    60   6 C        3.802    -0.052    21.507     6.603
    61   6 C        3.847    -0.022    20.930     6.508
    62   6 C        3.800    -0.054    21.552     6.610
    63   6 C        3.750    -0.109    22.643     6.786
    64   6 C        3.753    -0.113    22.729     6.799
    65   1 H        0.926     0.087     1.910     2.161
    66   1 H        0.926     0.072     2.067     2.248
    67   1 H        0.926     0.064     2.156     2.296
    68   1 H        0.926     0.064     2.150     2.293
    69   1 H        0.926     0.060     2.203     2.321
    70   1 H        0.926     0.057     2.234     2.337
    71   1 H        0.923     0.055     2.253     2.347
    72   1 H        0.924     0.040     2.452     2.449
    73   1 H        0.924     0.039     2.467     2.456
    74   1 H        0.924     0.039     2.458     2.452
    75   1 H        0.924     0.048     2.345     2.395
    76   1 H        0.924     0.038     2.470     2.458
    77   1 H        0.804     0.330     0.637     1.254
    78   1 H        0.926     0.070     2.085     2.258
    79   1 H        0.926     0.082     1.959     2.189
    80   1 H        0.804     0.371     0.541     1.155
    81   1 H        0.804     0.364     0.557     1.173
    82   1 H        0.924     0.074     2.047     2.238
    83   1 H        0.924     0.072     2.065     2.247
    84   1 H        0.923     0.052     2.298     2.371
    85   1 H        0.924     0.049     2.328     2.386
    86   1 H        0.923     0.081     1.965     2.192
    87   1 H        0.924     0.057     2.239     2.340
    88   1 H        0.923     0.051     2.304     2.374
    89   1 H        0.923     0.054     2.273     2.358
    90   1 H        0.923     0.071     2.075     2.253
    91   1 H        0.923     0.061     2.182     2.310
    92   1 H        0.924     0.028     2.614     2.528
    93   1 H        0.924     0.064     2.158     2.297
    94   1 H        0.924     0.075     2.036     2.231
    95   1 H        0.802     0.327     0.646     1.263
    96   1 H        0.804     0.370     0.544     1.159
    97   1 H        0.803     0.354     0.579     1.195
    98   1 H        0.924     0.076     2.021     2.223
    99   1 H        0.924     0.050     2.324     2.384
   100   1 H        0.804     0.345     0.600     1.217
   101   1 H        0.803     0.343     0.604     1.221
   102   1 H        0.926     0.085     1.932     2.173
   103   1 H        0.926     0.081     1.968     2.194
   104   1 H        0.926     0.063     2.160     2.298
   105   1 H        0.926     0.063     2.162     2.299
   106   1 H        0.924     0.069     2.092     2.262
   107   1 H        0.924     0.072     2.064     2.247
   108   1 H        0.923     0.014     2.821     2.626
   109   1 H        0.804     0.340     0.612     1.229
   110   1 H        0.926     0.019     2.743     2.590
   111   1 H        0.925     0.055     2.263     2.353
   112   1 H        0.924     0.055     2.264     2.353
   113   1 H        0.924     0.062     2.178     2.308
   114   1 H        0.926     0.042     2.419     2.432
   115   1 H        0.926     0.026     2.645     2.543
   116   1 H        0.924     0.055     2.253     2.347
   117   1 H        0.924     0.042     2.423     2.434
   118   1 H        0.924     0.019     2.752     2.594
   119   1 H        0.924     0.025     2.656     2.549
   120   1 H        0.923     0.037     2.494     2.470
   121   1 H        0.924     0.017     2.773     2.604
   122   1 H        0.924     0.035     2.522     2.483
   123   1 H        0.924     0.037     2.483     2.464
   124   1 H        0.924     0.038     2.474     2.460
   125   1 H        0.924     0.034     2.530     2.487
   126   1 H        0.924     0.029     2.598     2.521
   127   1 H        0.924     0.022     2.696     2.568
   128   1 H        0.925     0.064     2.156     2.296

 Mol. C6AA /au·bohr⁶  :     156868.109108
 Mol. C8AA /au·bohr⁸  :    3571115.034410
 Mol. α(0) /au        :        597.660806


Wiberg/Mayer (AO) data.
largest (>0.10) Wiberg bond orders for each atom

 ---------------------------------------------------------------------------
     #   Z sym  total        # sym  WBO       # sym  WBO       # sym  WBO
 ---------------------------------------------------------------------------
     1   6 C    3.897 --     3 O    1.675     2 C    1.074    38 O    1.073
     2   6 C    3.939 --     4 C    1.712     1 C    1.074    65 H    0.957
                             6 C    0.105
     3   8 O    1.958 --     1 C    1.675    38 O    0.149
     4   6 C    3.980 --     2 C    1.712     5 C    1.175    66 H    0.954
     5   6 C    3.984 --     6 C    1.691     4 C    1.175    67 H    0.961
                             8 C    0.114
     6   6 C    3.967 --     5 C    1.691     7 C    1.157    68 H    0.963
                             2 C    0.105
     7   6 C    3.989 --     8 C    1.802     6 C    1.157    69 H    0.954
     8   6 C    3.933 --     7 C    1.802     9 C    1.003    70 H    0.962
                             5 C    0.114
     9   6 C    3.951 --     8 C    1.003    10 C    0.988    12 O    0.971
                            71 H    0.946
    10   6 C    3.996 --    11 C    1.022     9 C    0.988    72 H    0.975
                            73 H    0.975
    11   6 C    3.994 --    10 C    1.022    76 H    0.986    74 H    0.986
                            75 H    0.985
    12   8 O    1.942 --     9 C    0.971    77 H    0.872
    13   6 C    3.984 --    14 C    1.415    18 C    1.397    23 C    1.009
    14   6 C    3.977 --    13 C    1.415    15 C    1.365    78 H    0.963
    15   6 C    3.945 --    16 C    1.372    14 C    1.365    20 O    1.082
    16   6 C    3.975 --    17 C    1.389    15 C    1.372    79 H    0.961
    17   6 C    3.943 --    16 C    1.389    18 C    1.334    19 O    1.078
    18   6 C    3.973 --    13 C    1.397    17 C    1.334    21 C    0.974
    19   8 O    2.086 --    17 C    1.078    80 H    0.843
    20   8 O    2.091 --    15 C    1.082    81 H    0.849
    21   6 C    3.914 --    18 C    0.974    22 O    0.953    28 O    0.946
                            24 C    0.934
    22   8 O    2.050 --    23 C    0.961    21 C    0.953
    23   6 C    3.936 --    13 C    1.009    22 O    0.961    82 H    0.955
                            83 H    0.955
    24   6 C    3.957 --    44 O    0.997    25 C    0.968    84 H    0.956
                            21 C    0.934
    25   6 C    3.930 --    26 C    0.970    24 C    0.968    30 O    0.941
                            85 H    0.939
    26   6 C    3.940 --    25 C    0.970    29 O    0.965    27 C    0.958
                            86 H    0.949
    27   6 C    3.938 --    42 C    0.980    28 O    0.960    26 C    0.958
                            87 H    0.946
    28   8 O    2.063 --    27 C    0.960    21 C    0.946
    29   8 O    2.126 --    31 C    0.999    26 C    0.965
    30   8 O    2.285 --    45 C    1.097    25 C    0.941    53 O    0.144
    31   6 C    3.926 --    29 O    0.999    36 C    0.954    32 O    0.948
                            88 H    0.948
    32   8 O    2.059 --    33 C    0.957    31 C    0.948
    33   6 C    3.942 --    37 C    0.990    34 C    0.966    32 O    0.957
                            89 H    0.954
    34   6 C    3.957 --    39 O    1.000    33 C    0.966    35 C    0.961
                            90 H    0.956
    35   6 C    3.964 --    41 O    1.007    36 C    0.963    34 C    0.961
                            91 H    0.959
    36   6 C    3.962 --    40 O    0.997    35 C    0.963    31 C    0.954
                            92 H    0.944
    37   6 C    3.939 --    33 C    0.990    38 O    0.965    94 H    0.959
                            93 H    0.958
    38   8 O    2.263 --     1 C    1.073    37 C    0.965     3 O    0.149
    39   8 O    1.952 --    34 C    1.000    95 H    0.849
    40   8 O    1.922 --    36 C    0.997    96 H    0.843
    41   8 O    1.947 --    35 C    1.007    97 H    0.851
    42   6 C    3.957 --    43 O    1.012    27 C    0.980    99 H    0.966
                            98 H    0.963
    43   8 O    1.938 --    42 C    1.012   100 H    0.865
    44   8 O    1.917 --    24 C    0.997   101 H    0.831
    45   6 C    3.895 --    53 O    1.607    30 O    1.097    46 C    1.077
    46   6 C    3.977 --    47 C    1.753    45 C    1.077   102 H    0.949
    47   6 C    3.971 --    46 C    1.753    48 C    1.117   103 H    0.952
    48   6 C    3.987 --    49 C    1.826    47 C    1.117   104 H    0.945
    49   6 C    3.978 --    48 C    1.826    50 C    1.037   105 H    0.964
    50   6 C    3.984 --    49 C    1.037   106 H    0.969   107 H    0.960
                            51 C    0.949
    51   6 C    3.951 --    52 C    0.990    54 O    0.978   108 H    0.961
                            50 C    0.949
    52   6 C    3.974 --    55 C    1.773    56 C    1.033    51 C    0.990
                            58 C    0.122
    53   8 O    1.981 --    45 C    1.607    30 O    0.144
    54   8 O    1.920 --    51 C    0.978   109 H    0.870
    55   6 C    3.988 --    52 C    1.773    57 C    1.128   110 H    0.963
    56   6 C    3.994 --    52 C    1.033   113 H    0.979   112 H    0.973
                           111 H    0.955
    57   6 C    3.988 --    58 C    1.815    55 C    1.128   114 H    0.961
    58   6 C    3.982 --    57 C    1.815    59 C    1.033   115 H    0.966
                            52 C    0.122
    59   6 C    3.993 --    58 C    1.033    60 C    0.983   116 H    0.965
                           117 H    0.963
    60   6 C    3.987 --    61 C    0.992    59 C    0.983   118 H    0.975
                           119 H    0.969
    61   6 C    3.992 --    64 C    1.011    62 C    0.994    60 C    0.992
                           120 H    0.957
    62   6 C    3.997 --    63 C    1.022    61 C    0.994   122 H    0.974
                           121 H    0.974
    63   6 C    3.996 --    62 C    1.022   123 H    0.986   125 H    0.985
                           124 H    0.984
    64   6 C    3.994 --    61 C    1.011   127 H    0.985   126 H    0.984
                           128 H    0.974
    65   1 H    0.992 --     2 C    0.957
    66   1 H    0.995 --     4 C    0.954
    67   1 H    0.995 --     5 C    0.961
    68   1 H    0.995 --     6 C    0.963
    69   1 H    0.996 --     7 C    0.954
    70   1 H    0.997 --     8 C    0.962
    71   1 H    0.995 --     9 C    0.946
    72   1 H    0.998 --    10 C    0.975
    73   1 H    0.998 --    10 C    0.975
    74   1 H    0.998 --    11 C    0.986
    75   1 H    0.998 --    11 C    0.985
    76   1 H    0.999 --    11 C    0.986
    77   1 H    0.891 --    12 O    0.872
    78   1 H    0.995 --    14 C    0.963
    79   1 H    0.993 --    16 C    0.961
    80   1 H    0.861 --    19 O    0.843
    81   1 H    0.867 --    20 O    0.849
    82   1 H    0.994 --    23 C    0.955
    83   1 H    0.995 --    23 C    0.955
    84   1 H    0.997 --    24 C    0.956
    85   1 H    0.997 --    25 C    0.939
    86   1 H    0.993 --    26 C    0.949
    87   1 H    0.997 --    27 C    0.946
    88   1 H    0.997 --    31 C    0.948
    89   1 H    0.997 --    33 C    0.954
    90   1 H    0.995 --    34 C    0.956
    91   1 H    0.996 --    35 C    0.959
    92   1 H    0.999 --    36 C    0.944
    93   1 H    0.995 --    37 C    0.958
    94   1 H    0.993 --    37 C    0.959
    95   1 H    0.893 --    39 O    0.849
    96   1 H    0.863 --    40 O    0.843
    97   1 H    0.875 --    41 O    0.851
    98   1 H    0.994 --    42 C    0.963
    99   1 H    0.997 --    42 C    0.966
   100   1 H    0.881 --    43 O    0.865
   101   1 H    0.882 --    44 O    0.831
   102   1 H    0.993 --    46 C    0.949
   103   1 H    0.993 --    47 C    0.952
   104   1 H    0.996 --    48 C    0.945
   105   1 H    0.996 --    49 C    0.964
   106   1 H    0.993 --    50 C    0.969
   107   1 H    0.994 --    50 C    0.960
   108   1 H    1.000 --    51 C    0.961
   109   1 H    0.884 --    54 O    0.870
   110   1 H    1.000 --    55 C    0.963
   111   1 H    0.996 --    56 C    0.955
   112   1 H    0.997 --    56 C    0.973
   113   1 H    0.996 --    56 C    0.979
   114   1 H    0.998 --    57 C    0.961
   115   1 H    0.999 --    58 C    0.966
   116   1 H    0.997 --    59 C    0.965
   117   1 H    0.995 --    59 C    0.963
   118   1 H    0.999 --    60 C    0.975
   119   1 H    0.999 --    60 C    0.969
   120   1 H    0.997 --    61 C    0.957
   121   1 H    1.000 --    62 C    0.974
   122   1 H    0.999 --    62 C    0.974
   123   1 H    0.998 --    63 C    0.986
   124   1 H    0.999 --    63 C    0.984
   125   1 H    0.999 --    63 C    0.985
   126   1 H    0.999 --    64 C    0.984
   127   1 H    0.999 --    64 C    0.985
   128   1 H    0.996 --    64 C    0.974
 ---------------------------------------------------------------------------

Topologies differ in total number of bonds
Writing topology from bond orders to xtbtopo.mol

molecular dipole:
                 x           y           z       tot (Debye)
 q only:        1.993      -0.083       1.457
   full:        1.839       0.096       1.376       5.842
molecular quadrupole (traceless):
                xx          xy          yy          xz          yz          zz
 q only:       84.377     -24.990     -54.299      10.264      14.594     -30.078
  q+dip:       87.612     -32.923     -63.758      14.629      17.900     -23.854
   full:       85.615     -32.663     -64.254      14.279      19.394     -21.362


           -------------------------------------------------
          | TOTAL ENERGY             -202.417111987228 Eh   |
          | GRADIENT NORM               0.120181745311 Eh/α |
          | HOMO-LUMO GAP               1.594761631141 eV   |
           -------------------------------------------------

------------------------------------------------------------------------
 * finished run on 2026/06/19 at 18:52:06.701     
------------------------------------------------------------------------
 total:
 * wall-time:     0 d,  0 h,  0 min,  0.242 sec
 *  cpu-time:     0 d,  0 h,  0 min,  3.715 sec
 * ratio c/w:    15.332 speedup
 SCF:
 * wall-time:     0 d,  0 h,  0 min,  0.198 sec
 *  cpu-time:     0 d,  0 h,  0 min,  3.142 sec
 * ratio c/w:    15.857 speedup

normal termination of xtb
