      -----------------------------------------------------------      
     |                   =====================                   |     
     |                           x T B                           |     
     |                   =====================                   |     
     |                         S. Grimme                         |     
     |          Mulliken Center for Theoretical Chemistry        |     
     |                    University of Bonn                     |     
      -----------------------------------------------------------      

   * xtb version 6.7.1 (edcfbbe) compiled by 'albert@albert-system' on 2024-07-22

   xtb is free software: you can redistribute it and/or modify it under
   the terms of the GNU Lesser General Public License as published by
   the Free Software Foundation, either version 3 of the License, or
   (at your option) any later version.
   
   xtb is distributed in the hope that it will be useful,
   but WITHOUT ANY WARRANTY; without even the implied warranty of
   MERCHANTABILITY or FITNESS FOR A PARTICULAR PURPOSE.  See the
   GNU Lesser General Public License for more details.
   
   Cite this work as:
   * C. Bannwarth, E. Caldeweyher, S. Ehlert, A. Hansen, P. Pracht,
     J. Seibert, S. Spicher, S. Grimme, WIREs Comput. Mol. Sci., 2020, 11,
     e01493. DOI: 10.1002/wcms.1493
   
   for GFN2-xTB:
   * C. Bannwarth, S. Ehlert and S. Grimme., J. Chem. Theory Comput., 2019,
     15, 1652-1671. DOI: 10.1021/acs.jctc.8b01176
   for GFN1-xTB:
   * S. Grimme, C. Bannwarth, P. Shushkov, J. Chem. Theory Comput., 2017,
     13, 1989-2009. DOI: 10.1021/acs.jctc.7b00118
   for GFN0-xTB:
   * P. Pracht, E. Caldeweyher, S. Ehlert, S. Grimme, ChemRxiv, 2019, preprint.
     DOI: 10.26434/chemrxiv.8326202.v1
   for GFN-FF:
   * S. Spicher and S. Grimme, Angew. Chem. Int. Ed., 2020, 59, 15665-15673.
     DOI: 10.1002/anie.202004239
   
   for ALPB and GBSA implicit solvation:
   * S. Ehlert, M. Stahn, S. Spicher, S. Grimme, J. Chem. Theory Comput.,
     2021, 17, 4250-4261. DOI: 10.1021/acs.jctc.1c00471
   
   for ddCOSMO and CPCM-X implicit solvation:
   * M. Stahn, S. Ehlert, S. Grimme, J. Phys. Chem. A,
     2023, XX, XXXX-XXXX. DOI: 10.1021/acs.jpca.3c04382
   
   for DFT-D4:
   * E. Caldeweyher, C. Bannwarth and S. Grimme, J. Chem. Phys., 2017,
     147, 034112. DOI: 10.1063/1.4993215
   * E. Caldeweyher, S. Ehlert, A. Hansen, H. Neugebauer, S. Spicher,
     C. Bannwarth and S. Grimme, J. Chem. Phys., 2019, 150, 154122.
     DOI: 10.1063/1.5090222
   * E. Caldeweyher, J.-M. Mewes, S. Ehlert and S. Grimme, Phys. Chem. Chem. Phys.
     2020, 22, 8499-8512. DOI: 10.1039/D0CP00502A
   
   for sTDA-xTB:
   * S. Grimme and C. Bannwarth, J. Chem. Phys., 2016, 145, 054103.
     DOI: 10.1063/1.4959605
   
   in the mass-spec context:
   * V. Asgeirsson, C. Bauer and S. Grimme, Chem. Sci., 2017, 8, 4879.
     DOI: 10.1039/c7sc00601b
   * J. Koopman and S. Grimme, ACS Omega 2019, 4, 12, 15120-15133.
     DOI: 10.1021/acsomega.9b02011
   
   for metadynamics refer to:
   * S. Grimme, J. Chem. Theory Comput., 2019, 155, 2847-2862
     DOI: 10.1021/acs.jctc.9b00143
   
   for SPH calculations refer to:
   * S. Spicher and S. Grimme, J. Chem. Theory Comput., 2021, 17, 1701-1714
     DOI: 10.1021/acs.jctc.0c01306
   
   for ONIOM refer to:
   * C. Plett, A. Katbashev, S. Ehlert, S. Grimme, M. Bursch,
     Phys. Chem. Chem. Phys., 2023, 25, 17860-17868. DOI: 10.1039/D3CP02178E
   
   for DIPRO refer to:
   * J. Kohn, N. Gildemeister, S. Grimme, D. Fazzi, A. Hansen,
     J. Chem. Phys., 2023, just accepted.
   
   for PTB refer to:
   * S. Grimme, M. Mueller, A. Hansen, J. Chem. Phys., 2023, 158, 124111.
     DOI: 10.1063/5.0137838
   
   with help from (in alphabetical order)
   P. Atkinson, C. Bannwarth, F. Bohle, G. Brandenburg, E. Caldeweyher
   M. Checinski, S. Dohm, S. Ehlert, S. Ehrlich, I. Gerasimov, C. Hölzer
   A. Katbashev, J. Kohn, J. Koopman, C. Lavigne, S. Lehtola, F. März, M. Müller,
   F. Musil, H. Neugebauer, J. Pisarek, C. Plett, P. Pracht, F. Pultar,
   J. Seibert, P. Shushkov, S. Spicher, M. Stahn, M. Steiner, T. Strunk,
   J. Stückrath, T. Rose, and J. Unsleber
   
 * started run on 2026/06/19 at 18:52:08.037     
   ID    Z sym.   atoms
    1    6 C      1, 2, 4-11, 13-18, 21, 23-27, 31, 33-37, 42, 45-52, 55-64
    2    8 O      3, 12, 19, 20, 22, 28-30, 32, 38-41, 43, 44, 53, 54
    3    1 H      65-128

           -------------------------------------------------
          |                Calculation Setup                |
           -------------------------------------------------

          program call               : xtb PAPU-0002/conf05.xyz --gfn 2 --alpb octanol --chrg 0 --uhf 0 --namespace PAPU-0002/conf05_octanol
          hostname                   : cpu10
          calculation namespace      : PAPU-0002/conf05_octanol
          coordinate file            : PAPU-0002/conf05.xyz
          omp threads                :                    16


           -------------------------------------------------
          |                 G F N 2 - x T B                 |
           -------------------------------------------------

        Reference                      10.1021/acs.jctc.8b01176
      * Hamiltonian:
        H0-scaling (s, p, d)           1.850000    2.230000    2.230000
        zeta-weighting                 0.500000
      * Dispersion:
        s8                             2.700000
        a1                             0.520000
        a2                             5.000000
        s9                             5.000000
      * Repulsion:
        kExp                           1.500000    1.000000
        rExp                           1.000000
      * Coulomb:
        alpha                          2.000000
        third order                    shell-resolved
        anisotropic                    true
        a3                             3.000000
        a5                             4.000000
        cn-shift                       1.200000
        cn-exp                         4.000000
        max-rad                        5.000000

      * Solvation model:               ALPB
        Solvent                        octanol
        Parameter file                 internal GFN2-xTB/ALPB
        Dielectric constant                9.8629E+00
        Reference state                gsolv [1 M gas/solution]
        Free energy shift                  2.3397E-03 Eh       1.4682E+00 kcal/mol
        Temperature                        2.9815E+02 K
        Density                            8.3000E-01 kg/L
        Solvent mass                       1.3023E+02 g/mol
        Interaction kernel             P16
        Born radius scaling (c1)           1.5898E+00
        Born radii integrator          GBOBC
        Born offset                        0.0000E+00 a0       0.0000E+00 AA
        H-bond correction              true
        Ion screening                  false
        Surface tension                    1.0000E-05 Eh       1.5569E+01 dyn/cm
        Grid points                               230 per atom

          ...................................................
          :                      SETUP                      :
          :.................................................:
          :  # basis functions                 320          :
          :  # atomic orbitals                 320          :
          :  # shells                          192          :
          :  # electrons                       354          :
          :  max. iterations                   250          :
          :  Hamiltonian                  GFN2-xTB          :
          :  restarted?                      false          :
          :  GBSA solvation                   true          :
          :  PC potential                    false          :
          :  electronic temp.          300.0000000     K    :
          :  accuracy                    1.0000000          :
          :  -> integral cutoff          0.2500000E+02      :
          :  -> integral neglect         0.1000000E-07      :
          :  -> SCF convergence          0.1000000E-05 Eh   :
          :  -> wf. convergence          0.1000000E-03 e    :
          :  Broyden damping             0.4000000          :
          :  net charge                          0          :
          :  unpaired electrons                  0          :
          ...................................................

 iter      E             dE          RMSdq      gap      omega  full diag
   1   -204.4520076 -0.204452E+03  0.424E+00    2.30       0.0  T
   2   -204.6684667 -0.216459E+00  0.234E+00    1.61       1.0  T
   3   -204.6472811  0.211856E-01  0.111E+00    1.61       1.0  T
   4   -204.6912325 -0.439514E-01  0.351E-01    1.42       1.0  T
   5   -204.6991901 -0.795764E-02  0.142E-01    1.41       1.0  T
   6   -204.7004189 -0.122881E-02  0.632E-02    1.42       1.0  T
   7   -204.7005307 -0.111798E-03  0.296E-02    1.43       1.0  T
   8   -204.7005620 -0.312203E-04  0.126E-02    1.43       1.0  T
   9   -204.7005682 -0.623056E-05  0.588E-03    1.43       1.5  T
  10   -204.7005698 -0.164007E-05  0.228E-03    1.43       3.9  T
  11   -204.7005700 -0.155523E-06  0.123E-03    1.43       7.2  T
  12   -204.7005700 -0.350054E-07  0.655E-04    1.43      13.5  T
  13   -204.7005700 -0.190813E-07  0.224E-04    1.43      39.4  T

   *** convergence criteria satisfied after 13 iterations ***

         #    Occupation            Energy/Eh            Energy/eV
      -------------------------------------------------------------
         1        2.0000           -0.7652182             -20.8226
       ...           ...                  ...                  ...
       171        2.0000           -0.4084992             -11.1158
       172        2.0000           -0.4042493             -11.0002
       173        2.0000           -0.4041360             -10.9971
       174        2.0000           -0.4031029             -10.9690
       175        2.0000           -0.3932117             -10.6998
       176        2.0000           -0.3891555             -10.5895
       177        2.0000           -0.3631927              -9.8830 (HOMO)
       178                         -0.3105119              -8.4495 (LUMO)
       179                         -0.3059724              -8.3259
       180                         -0.2413640              -6.5678
       181                         -0.2368185              -6.4442
       182                         -0.2364990              -6.4355
       ...                                ...                  ...
       320                          0.6970272              18.9671
      -------------------------------------------------------------
                  HL-Gap            0.0526808 Eh            1.4335 eV
             Fermi-level           -0.3368523 Eh           -9.1662 eV

 SCC (total)                   0 d,  0 h,  0 min,  0.196 sec
 SCC setup                      ...        0 min,  0.003 sec (  1.476%)
 Dispersion                     ...        0 min,  0.004 sec (  1.817%)
 classical contributions        ...        0 min,  0.000 sec (  0.068%)
 integral evaluation            ...        0 min,  0.008 sec (  4.215%)
 iterations                     ...        0 min,  0.151 sec ( 77.051%)
 molecular gradient             ...        0 min,  0.028 sec ( 14.468%)
 printout                       ...        0 min,  0.002 sec (  0.879%)

         :::::::::::::::::::::::::::::::::::::::::::::::::::::
         ::                     SUMMARY                     ::
         :::::::::::::::::::::::::::::::::::::::::::::::::::::
         :: total energy            -202.422249990795 Eh    ::
         :: total w/o Gsasa/hb      -202.354939583310 Eh    ::
         :: gradient norm              0.121982944452 Eh/a0 ::
         :: HOMO-LUMO gap              1.433517488052 eV    ::
         ::.................................................::
         :: SCC energy              -204.693231823430 Eh    ::
         :: -> isotropic ES            0.447438024999 Eh    ::
         :: -> anisotropic ES         -0.011780082452 Eh    ::
         :: -> anisotropic XC          0.030337370589 Eh    ::
         :: -> dispersion             -0.156649919853 Eh    ::
         :: -> Gsolv                  -0.099347110818 Eh    ::
         ::    -> Gelec               -0.032036703333 Eh    ::
         ::    -> Gsasa               -0.031409729542 Eh    ::
         ::    -> Ghb                 -0.038240347319 Eh    ::
         ::    -> Gshift               0.002339669376 Eh    ::
         :: repulsion energy           2.270981832635 Eh    ::
         :: add. restraining           0.000000000000 Eh    ::
         :: total charge              -0.000000000000 e     ::
         :::::::::::::::::::::::::::::::::::::::::::::::::::::

           -------------------------------------------------
          |                Property Printout                |
           -------------------------------------------------

    * Orbital Energies and Occupations

         #    Occupation            Energy/Eh            Energy/eV
      -------------------------------------------------------------
         1        2.0000           -0.7652182             -20.8226
       ...           ...                  ...                  ...
       165        2.0000           -0.4203112             -11.4373
       166        2.0000           -0.4189544             -11.4003
       167        2.0000           -0.4173185             -11.3558
       168        2.0000           -0.4138120             -11.2604
       169        2.0000           -0.4114801             -11.1969
       170        2.0000           -0.4088976             -11.1267
       171        2.0000           -0.4084992             -11.1158
       172        2.0000           -0.4042493             -11.0002
       173        2.0000           -0.4041360             -10.9971
       174        2.0000           -0.4031029             -10.9690
       175        2.0000           -0.3932117             -10.6998
       176        2.0000           -0.3891555             -10.5895
       177        2.0000           -0.3631927              -9.8830 (HOMO)
       178                         -0.3105119              -8.4495 (LUMO)
       179                         -0.3059724              -8.3259
       180                         -0.2413640              -6.5678
       181                         -0.2368185              -6.4442
       182                         -0.2364990              -6.4355
       183                         -0.2338798              -6.3642
       184                         -0.2283992              -6.2151
       185                         -0.1806701              -4.9163
       186                         -0.1588389              -4.3222
       187                         -0.1415763              -3.8525
       188                         -0.1310777              -3.5668
       ...                                ...                  ...
       320                          0.6970272              18.9671
      -------------------------------------------------------------
                  HL-Gap            0.0526808 Eh            1.4335 eV
             Fermi-level           -0.3368523 Eh           -9.1662 eV

     #   Z          covCN         q      C6AA      α(0)
     1   6 C        2.752     0.351    21.040     7.511
     2   6 C        2.896    -0.090    30.255     9.018
     3   8 O        0.858    -0.459    22.897     6.416
     4   6 C        2.901    -0.005    28.144     8.699
     5   6 C        2.899    -0.040    29.003     8.830
     6   6 C        2.900    -0.022    28.549     8.761
     7   6 C        2.895    -0.037    28.908     8.815
     8   6 C        2.894    -0.051    29.270     8.870
     9   6 C        3.729     0.111    18.852     6.199
    10   6 C        3.800    -0.070    21.835     6.653
    11   6 C        3.751    -0.111    22.688     6.793
    12   8 O        1.652    -0.489    22.663     6.426
    13   6 C        2.999     0.003    27.945     8.672
    14   6 C        2.921    -0.080    30.001     8.982
    15   6 C        2.839     0.154    24.659     8.138
    16   6 C        2.923    -0.119    31.020     9.134
    17   6 C        2.835     0.149    24.751     8.153
    18   6 C        3.022    -0.042    29.017     8.836
    19   8 O        1.657    -0.443    21.696     6.288
    20   8 O        1.657    -0.429    21.418     6.247
    21   6 C        3.737     0.262    16.662     5.825
    22   8 O        1.693    -0.370    20.265     6.078
    23   6 C        3.754     0.071    19.443     6.287
    24   6 C        3.721     0.095    19.125     6.246
    25   6 C        3.757     0.102    18.944     6.205
    26   6 C        3.728     0.086    19.242     6.263
    27   6 C        3.744     0.089    19.171     6.246
    28   8 O        1.695    -0.356    19.996     6.037
    29   8 O        1.697    -0.304    19.062     5.895
    30   8 O        1.702    -0.286    18.759     5.848
    31   6 C        3.618     0.235    17.354     6.008
    32   8 O        1.695    -0.369    20.252     6.076
    33   6 C        3.737     0.097    19.059     6.230
    34   6 C        3.724     0.083    19.306     6.274
    35   6 C        3.724     0.083    19.305     6.274
    36   6 C        3.721     0.084    19.296     6.274
    37   6 C        3.732     0.077    19.383     6.284
    38   8 O        1.703    -0.274    18.537     5.813
    39   8 O        1.651    -0.469    22.234     6.365
    40   8 O        1.653    -0.498    22.859     6.454
    41   8 O        1.653    -0.474    22.349     6.382
    42   6 C        3.673     0.067    19.684     6.358
    43   8 O        1.652    -0.477    22.397     6.389
    44   8 O        1.652    -0.499    22.863     6.455
    45   6 C        2.732     0.362    20.861     7.478
    46   6 C        2.897    -0.090    30.253     9.018
    47   6 C        2.902    -0.001    28.051     8.684
    48   6 C        2.900    -0.042    29.035     8.835
    49   6 C        2.894    -0.016    28.414     8.740
    50   6 C        3.806    -0.082    22.055     6.686
    51   6 C        3.729     0.118    18.745     6.181
    52   6 C        2.941    -0.003    28.106     8.695
    53   8 O        0.858    -0.484    23.428     6.490
    54   8 O        1.652    -0.498    22.860     6.454
    55   6 C        2.904    -0.050    29.228     8.865
    56   6 C        3.756    -0.118    22.805     6.809
    57   6 C        2.895    -0.053    29.316     8.877
    58   6 C        2.895    -0.046    29.134     8.850
    59   6 C        3.805    -0.066    21.755     6.640
    60   6 C        3.801    -0.060    21.652     6.625
    61   6 C        3.846    -0.016    20.828     6.492
    62   6 C        3.800    -0.062    21.697     6.632
    63   6 C        3.750    -0.106    22.586     6.778
    64   6 C        3.753    -0.111    22.692     6.793
    65   1 H        0.926     0.085     1.924     2.169
    66   1 H        0.926     0.074     2.037     2.232
    67   1 H        0.926     0.060     2.197     2.318
    68   1 H        0.926     0.063     2.168     2.302
    69   1 H        0.926     0.067     2.124     2.279
    70   1 H        0.926     0.058     2.227     2.333
    71   1 H        0.923     0.060     2.197     2.318
    72   1 H        0.924     0.043     2.411     2.428
    73   1 H        0.924     0.039     2.458     2.452
    74   1 H        0.924     0.048     2.341     2.392
    75   1 H        0.924     0.039     2.459     2.452
    76   1 H        0.924     0.041     2.440     2.443
    77   1 H        0.804     0.330     0.638     1.255
    78   1 H        0.926     0.081     1.972     2.196
    79   1 H        0.926     0.071     2.070     2.250
    80   1 H        0.804     0.371     0.542     1.157
    81   1 H        0.804     0.363     0.558     1.174
    82   1 H        0.924     0.076     2.023     2.225
    83   1 H        0.924     0.073     2.051     2.240
    84   1 H        0.923     0.053     2.289     2.366
    85   1 H        0.924     0.053     2.280     2.361
    86   1 H        0.923     0.080     1.981     2.201
    87   1 H        0.924     0.056     2.245     2.343
    88   1 H        0.923     0.056     2.246     2.344
    89   1 H        0.923     0.042     2.426     2.436
    90   1 H        0.923     0.069     2.099     2.266
    91   1 H        0.923     0.056     2.242     2.341
    92   1 H        0.924     0.036     2.507     2.476
    93   1 H        0.924     0.073     2.053     2.240
    94   1 H        0.924     0.082     1.961     2.190
    95   1 H        0.801     0.325     0.651     1.267
    96   1 H        0.804     0.376     0.531     1.145
    97   1 H        0.803     0.357     0.573     1.189
    98   1 H        0.924     0.058     2.226     2.333
    99   1 H        0.924     0.064     2.148     2.292
   100   1 H        0.802     0.336     0.622     1.239
   101   1 H        0.803     0.346     0.598     1.215
   102   1 H        0.926     0.090     1.874     2.141
   103   1 H        0.926     0.079     1.991     2.206
   104   1 H        0.926     0.070     2.081     2.256
   105   1 H        0.926     0.069     2.095     2.263
   106   1 H        0.924     0.062     2.174     2.306
   107   1 H        0.924     0.068     2.107     2.270
   108   1 H        0.923     0.023     2.690     2.565
   109   1 H        0.804     0.341     0.609     1.226
   110   1 H        0.926     0.045     2.388     2.417
   111   1 H        0.925     0.043     2.407     2.426
   112   1 H        0.925     0.042     2.424     2.435
   113   1 H        0.924     0.073     2.055     2.242
   114   1 H        0.926     0.026     2.637     2.539
   115   1 H        0.926     0.037     2.493     2.469
   116   1 H        0.924     0.048     2.347     2.396
   117   1 H        0.924     0.042     2.422     2.434
   118   1 H        0.924     0.032     2.564     2.504
   119   1 H        0.924     0.027     2.635     2.538
   120   1 H        0.923     0.028     2.609     2.526
   121   1 H        0.924     0.029     2.597     2.520
   122   1 H        0.924     0.046     2.374     2.409
   123   1 H        0.925     0.027     2.637     2.539
   124   1 H        0.924     0.032     2.556     2.500
   125   1 H        0.924     0.037     2.493     2.469
   126   1 H        0.924     0.039     2.464     2.455
   127   1 H        0.924     0.036     2.509     2.477
   128   1 H        0.925     0.036     2.503     2.474

 Mol. C6AA /au·bohr⁶  :     156780.183635
 Mol. C8AA /au·bohr⁸  :    3570320.461880
 Mol. α(0) /au        :        597.487589


Wiberg/Mayer (AO) data.
largest (>0.10) Wiberg bond orders for each atom

 ---------------------------------------------------------------------------
     #   Z sym  total        # sym  WBO       # sym  WBO       # sym  WBO
 ---------------------------------------------------------------------------
     1   6 C    3.900 --     3 O    1.670     2 C    1.081    38 O    1.060
     2   6 C    3.940 --     4 C    1.704     1 C    1.081    65 H    0.960
                             6 C    0.105
     3   8 O    1.965 --     1 C    1.670    38 O    0.143
     4   6 C    3.978 --     2 C    1.704     5 C    1.183    66 H    0.948
     5   6 C    3.982 --     6 C    1.687     4 C    1.183    67 H    0.963
                             8 C    0.110
     6   6 C    3.965 --     5 C    1.687     7 C    1.157    68 H    0.963
                             2 C    0.105
     7   6 C    3.988 --     8 C    1.795     6 C    1.157    69 H    0.951
     8   6 C    3.934 --     7 C    1.795     9 C    1.011    70 H    0.962
                             5 C    0.110
     9   6 C    3.952 --     8 C    1.011    12 O    0.982    10 C    0.980
                            71 H    0.933
    10   6 C    3.992 --    11 C    1.022     9 C    0.980    73 H    0.975
                            72 H    0.974
    11   6 C    3.994 --    10 C    1.022    75 H    0.986    76 H    0.986
                            74 H    0.985
    12   8 O    1.937 --     9 C    0.982    77 H    0.875
    13   6 C    3.984 --    14 C    1.419    18 C    1.394    23 C    1.010
    14   6 C    3.979 --    13 C    1.419    15 C    1.363    78 H    0.964
    15   6 C    3.945 --    16 C    1.373    14 C    1.363    20 O    1.082
    16   6 C    3.971 --    17 C    1.384    15 C    1.373    79 H    0.960
    17   6 C    3.942 --    16 C    1.384    18 C    1.337    19 O    1.077
    18   6 C    3.973 --    13 C    1.394    17 C    1.337    21 C    0.973
    19   8 O    2.086 --    17 C    1.077    80 H    0.843
    20   8 O    2.091 --    15 C    1.082    81 H    0.850
    21   6 C    3.912 --    18 C    0.973    22 O    0.952    28 O    0.947
                            24 C    0.935
    22   8 O    2.050 --    23 C    0.960    21 C    0.952
    23   6 C    3.935 --    13 C    1.010    22 O    0.960    83 H    0.955
                            82 H    0.954
    24   6 C    3.959 --    44 O    0.998    25 C    0.968    84 H    0.956
                            21 C    0.935
    25   6 C    3.932 --    24 C    0.968    26 C    0.968    30 O    0.942
                            85 H    0.940
    26   6 C    3.940 --    25 C    0.968    29 O    0.966    27 C    0.958
                            86 H    0.954
    27   6 C    3.938 --    42 C    0.979    28 O    0.964    26 C    0.958
                            87 H    0.948
    28   8 O    2.063 --    27 C    0.964    21 C    0.947
    29   8 O    2.114 --    31 C    0.999    26 C    0.966
    30   8 O    2.275 --    45 C    1.090    25 C    0.942    53 O    0.140
    31   6 C    3.924 --    29 O    0.999    36 C    0.954    88 H    0.949
                            32 O    0.948
    32   8 O    2.053 --    33 C    0.952    31 C    0.948
    33   6 C    3.935 --    37 C    0.979    34 C    0.969    89 H    0.956
                            32 O    0.952
    34   6 C    3.960 --    39 O    1.000    33 C    0.969    35 C    0.963
                            90 H    0.955
    35   6 C    3.964 --    41 O    1.007    34 C    0.963    36 C    0.962
                            91 H    0.959
    36   6 C    3.958 --    40 O    0.990    35 C    0.962    31 C    0.954
                            92 H    0.946
    37   6 C    3.934 --    33 C    0.979    38 O    0.969    93 H    0.956
                            94 H    0.955
    38   8 O    2.273 --     1 C    1.060    37 C    0.969     3 O    0.143
    39   8 O    1.951 --    34 C    1.000    95 H    0.846
    40   8 O    1.934 --    36 C    0.990    96 H    0.835
    41   8 O    1.946 --    35 C    1.007    97 H    0.850
    42   6 C    3.956 --    43 O    1.012    27 C    0.979    99 H    0.968
                            98 H    0.965
    43   8 O    1.927 --    42 C    1.012   100 H    0.844
    44   8 O    1.915 --    24 C    0.998   101 H    0.826
    45   6 C    3.894 --    53 O    1.606    30 O    1.090    46 C    1.088
    46   6 C    3.965 --    47 C    1.707    45 C    1.088   102 H    0.956
                            49 C    0.113
    47   6 C    3.972 --    46 C    1.707    48 C    1.166   103 H    0.957
    48   6 C    3.986 --    49 C    1.772    47 C    1.166   104 H    0.956
    49   6 C    3.959 --    48 C    1.772    50 C    1.043   105 H    0.962
                            46 C    0.113
    50   6 C    3.989 --    49 C    1.043   107 H    0.966   106 H    0.964
                            51 C    0.939
    51   6 C    3.941 --    52 C    0.988    54 O    0.980   108 H    0.962
                            50 C    0.939
    52   6 C    3.975 --    55 C    1.792    56 C    1.030    51 C    0.988
                            58 C    0.120
    53   8 O    1.968 --    45 C    1.606    30 O    0.140
    54   8 O    1.923 --    51 C    0.980   109 H    0.867
    55   6 C    3.989 --    52 C    1.792    57 C    1.122   110 H    0.962
    56   6 C    3.993 --    52 C    1.030   112 H    0.982   113 H    0.964
                           111 H    0.963
    57   6 C    3.990 --    58 C    1.828    55 C    1.122   114 H    0.955
    58   6 C    3.989 --    57 C    1.828    59 C    1.031   115 H    0.965
                            52 C    0.120
    59   6 C    3.996 --    58 C    1.031    60 C    1.002   117 H    0.956
                           116 H    0.948
    60   6 C    3.994 --    59 C    1.002    61 C    0.994   118 H    0.977
                           119 H    0.974
    61   6 C    3.994 --    64 C    1.010    62 C    0.995    60 C    0.994
                           120 H    0.968
    62   6 C    3.995 --    63 C    1.021    61 C    0.995   122 H    0.973
                           121 H    0.968
    63   6 C    3.996 --    62 C    1.021   124 H    0.987   125 H    0.984
                           123 H    0.980
    64   6 C    3.995 --    61 C    1.010   127 H    0.986   126 H    0.983
                           128 H    0.983
    65   1 H    0.992 --     2 C    0.960
    66   1 H    0.994 --     4 C    0.948
    67   1 H    0.995 --     5 C    0.963
    68   1 H    0.995 --     6 C    0.963
    69   1 H    0.996 --     7 C    0.951
    70   1 H    0.997 --     8 C    0.962
    71   1 H    0.987 --     9 C    0.933
    72   1 H    0.998 --    10 C    0.974
    73   1 H    0.998 --    10 C    0.975
    74   1 H    0.998 --    11 C    0.985
    75   1 H    0.998 --    11 C    0.986
    76   1 H    0.998 --    11 C    0.986
    77   1 H    0.891 --    12 O    0.875
    78   1 H    0.993 --    14 C    0.964
    79   1 H    0.994 --    16 C    0.960
    80   1 H    0.862 --    19 O    0.843
    81   1 H    0.868 --    20 O    0.850
    82   1 H    0.994 --    23 C    0.954
    83   1 H    0.994 --    23 C    0.955
    84   1 H    0.997 --    24 C    0.956
    85   1 H    0.997 --    25 C    0.940
    86   1 H    0.993 --    26 C    0.954
    87   1 H    0.997 --    27 C    0.948
    88   1 H    0.996 --    31 C    0.949
    89   1 H    0.998 --    33 C    0.956
    90   1 H    0.995 --    34 C    0.955
    91   1 H    0.997 --    35 C    0.959
    92   1 H    0.999 --    36 C    0.946
    93   1 H    0.994 --    37 C    0.956
    94   1 H    0.993 --    37 C    0.955
    95   1 H    0.894 --    39 O    0.846
    96   1 H    0.859 --    40 O    0.835
    97   1 H    0.873 --    41 O    0.850
    98   1 H    0.996 --    42 C    0.965
    99   1 H    0.996 --    42 C    0.968
   100   1 H    0.887 --    43 O    0.844
   101   1 H    0.880 --    44 O    0.826
   102   1 H    0.991 --    46 C    0.956
   103   1 H    0.994 --    47 C    0.957
   104   1 H    0.995 --    48 C    0.956
   105   1 H    0.995 --    49 C    0.962
   106   1 H    0.992 --    50 C    0.964
   107   1 H    0.995 --    50 C    0.966
   108   1 H    0.999 --    51 C    0.962
   109   1 H    0.883 --    54 O    0.867
   110   1 H    0.998 --    55 C    0.962
   111   1 H    0.998 --    56 C    0.963
   112   1 H    0.998 --    56 C    0.982
   113   1 H    0.994 --    56 C    0.964
   114   1 H    0.999 --    57 C    0.955
   115   1 H    0.999 --    58 C    0.965
   116   1 H    0.990 --    59 C    0.948
   117   1 H    0.998 --    59 C    0.956
   118   1 H    0.999 --    60 C    0.977
   119   1 H    0.999 --    60 C    0.974
   120   1 H    0.998 --    61 C    0.968
   121   1 H    0.999 --    62 C    0.968
   122   1 H    0.998 --    62 C    0.973
   123   1 H    0.999 --    63 C    0.980
   124   1 H    0.999 --    63 C    0.987
   125   1 H    0.998 --    63 C    0.984
   126   1 H    0.998 --    64 C    0.983
   127   1 H    0.998 --    64 C    0.986
   128   1 H    0.999 --    64 C    0.983
 ---------------------------------------------------------------------------

Topologies differ in total number of bonds
Writing topology from bond orders to xtbtopo.mol

molecular dipole:
                 x           y           z       tot (Debye)
 q only:        1.071      -0.612      -2.171
   full:        1.031      -0.327      -2.161       6.143
molecular quadrupole (traceless):
                xx          xy          yy          xz          yz          zz
 q only:       30.094     -40.350      37.414      19.982       1.416     -67.508
  q+dip:       23.248     -51.164      49.132      25.873       0.014     -72.379
   full:       25.644     -50.191      47.170      25.517      -3.458     -72.814


           -------------------------------------------------
          | TOTAL ENERGY             -202.422249990795 Eh   |
          | GRADIENT NORM               0.121982944452 Eh/α |
          | HOMO-LUMO GAP               1.433517488052 eV   |
           -------------------------------------------------

------------------------------------------------------------------------
 * finished run on 2026/06/19 at 18:52:08.275     
------------------------------------------------------------------------
 total:
 * wall-time:     0 d,  0 h,  0 min,  0.238 sec
 *  cpu-time:     0 d,  0 h,  0 min,  3.609 sec
 * ratio c/w:    15.171 speedup
 SCF:
 * wall-time:     0 d,  0 h,  0 min,  0.197 sec
 *  cpu-time:     0 d,  0 h,  0 min,  3.098 sec
 * ratio c/w:    15.729 speedup

normal termination of xtb
