      -----------------------------------------------------------      
     |                   =====================                   |     
     |                           x T B                           |     
     |                   =====================                   |     
     |                         S. Grimme                         |     
     |          Mulliken Center for Theoretical Chemistry        |     
     |                    University of Bonn                     |     
      -----------------------------------------------------------      

   * xtb version 6.7.1 (edcfbbe) compiled by 'albert@albert-system' on 2024-07-22

   xtb is free software: you can redistribute it and/or modify it under
   the terms of the GNU Lesser General Public License as published by
   the Free Software Foundation, either version 3 of the License, or
   (at your option) any later version.
   
   xtb is distributed in the hope that it will be useful,
   but WITHOUT ANY WARRANTY; without even the implied warranty of
   MERCHANTABILITY or FITNESS FOR A PARTICULAR PURPOSE.  See the
   GNU Lesser General Public License for more details.
   
   Cite this work as:
   * C. Bannwarth, E. Caldeweyher, S. Ehlert, A. Hansen, P. Pracht,
     J. Seibert, S. Spicher, S. Grimme, WIREs Comput. Mol. Sci., 2020, 11,
     e01493. DOI: 10.1002/wcms.1493
   
   for GFN2-xTB:
   * C. Bannwarth, S. Ehlert and S. Grimme., J. Chem. Theory Comput., 2019,
     15, 1652-1671. DOI: 10.1021/acs.jctc.8b01176
   for GFN1-xTB:
   * S. Grimme, C. Bannwarth, P. Shushkov, J. Chem. Theory Comput., 2017,
     13, 1989-2009. DOI: 10.1021/acs.jctc.7b00118
   for GFN0-xTB:
   * P. Pracht, E. Caldeweyher, S. Ehlert, S. Grimme, ChemRxiv, 2019, preprint.
     DOI: 10.26434/chemrxiv.8326202.v1
   for GFN-FF:
   * S. Spicher and S. Grimme, Angew. Chem. Int. Ed., 2020, 59, 15665-15673.
     DOI: 10.1002/anie.202004239
   
   for ALPB and GBSA implicit solvation:
   * S. Ehlert, M. Stahn, S. Spicher, S. Grimme, J. Chem. Theory Comput.,
     2021, 17, 4250-4261. DOI: 10.1021/acs.jctc.1c00471
   
   for ddCOSMO and CPCM-X implicit solvation:
   * M. Stahn, S. Ehlert, S. Grimme, J. Phys. Chem. A,
     2023, XX, XXXX-XXXX. DOI: 10.1021/acs.jpca.3c04382
   
   for DFT-D4:
   * E. Caldeweyher, C. Bannwarth and S. Grimme, J. Chem. Phys., 2017,
     147, 034112. DOI: 10.1063/1.4993215
   * E. Caldeweyher, S. Ehlert, A. Hansen, H. Neugebauer, S. Spicher,
     C. Bannwarth and S. Grimme, J. Chem. Phys., 2019, 150, 154122.
     DOI: 10.1063/1.5090222
   * E. Caldeweyher, J.-M. Mewes, S. Ehlert and S. Grimme, Phys. Chem. Chem. Phys.
     2020, 22, 8499-8512. DOI: 10.1039/D0CP00502A
   
   for sTDA-xTB:
   * S. Grimme and C. Bannwarth, J. Chem. Phys., 2016, 145, 054103.
     DOI: 10.1063/1.4959605
   
   in the mass-spec context:
   * V. Asgeirsson, C. Bauer and S. Grimme, Chem. Sci., 2017, 8, 4879.
     DOI: 10.1039/c7sc00601b
   * J. Koopman and S. Grimme, ACS Omega 2019, 4, 12, 15120-15133.
     DOI: 10.1021/acsomega.9b02011
   
   for metadynamics refer to:
   * S. Grimme, J. Chem. Theory Comput., 2019, 155, 2847-2862
     DOI: 10.1021/acs.jctc.9b00143
   
   for SPH calculations refer to:
   * S. Spicher and S. Grimme, J. Chem. Theory Comput., 2021, 17, 1701-1714
     DOI: 10.1021/acs.jctc.0c01306
   
   for ONIOM refer to:
   * C. Plett, A. Katbashev, S. Ehlert, S. Grimme, M. Bursch,
     Phys. Chem. Chem. Phys., 2023, 25, 17860-17868. DOI: 10.1039/D3CP02178E
   
   for DIPRO refer to:
   * J. Kohn, N. Gildemeister, S. Grimme, D. Fazzi, A. Hansen,
     J. Chem. Phys., 2023, just accepted.
   
   for PTB refer to:
   * S. Grimme, M. Mueller, A. Hansen, J. Chem. Phys., 2023, 158, 124111.
     DOI: 10.1063/5.0137838
   
   with help from (in alphabetical order)
   P. Atkinson, C. Bannwarth, F. Bohle, G. Brandenburg, E. Caldeweyher
   M. Checinski, S. Dohm, S. Ehlert, S. Ehrlich, I. Gerasimov, C. Hölzer
   A. Katbashev, J. Kohn, J. Koopman, C. Lavigne, S. Lehtola, F. März, M. Müller,
   F. Musil, H. Neugebauer, J. Pisarek, C. Plett, P. Pracht, F. Pultar,
   J. Seibert, P. Shushkov, S. Spicher, M. Stahn, M. Steiner, T. Strunk,
   J. Stückrath, T. Rose, and J. Unsleber
   
 * started run on 2026/06/19 at 18:52:07.229     
   ID    Z sym.   atoms
    1    6 C      1, 2, 4-11, 13-18, 21, 23-27, 31, 33-37, 42, 45-52, 55-64
    2    8 O      3, 12, 19, 20, 22, 28-30, 32, 38-41, 43, 44, 53, 54
    3    1 H      65-128

           -------------------------------------------------
          |                Calculation Setup                |
           -------------------------------------------------

          program call               : xtb PAPU-0002/conf04.xyz --gfn 2 --alpb water --chrg 0 --uhf 0 --namespace PAPU-0002/conf04_water
          hostname                   : cpu10
          calculation namespace      : PAPU-0002/conf04_water
          coordinate file            : PAPU-0002/conf04.xyz
          omp threads                :                    16


           -------------------------------------------------
          |                 G F N 2 - x T B                 |
           -------------------------------------------------

        Reference                      10.1021/acs.jctc.8b01176
      * Hamiltonian:
        H0-scaling (s, p, d)           1.850000    2.230000    2.230000
        zeta-weighting                 0.500000
      * Dispersion:
        s8                             2.700000
        a1                             0.520000
        a2                             5.000000
        s9                             5.000000
      * Repulsion:
        kExp                           1.500000    1.000000
        rExp                           1.000000
      * Coulomb:
        alpha                          2.000000
        third order                    shell-resolved
        anisotropic                    true
        a3                             3.000000
        a5                             4.000000
        cn-shift                       1.200000
        cn-exp                         4.000000
        max-rad                        5.000000

      * Solvation model:               ALPB
        Solvent                        water
        Parameter file                 internal GFN2-xTB/ALPB
        Dielectric constant                8.0200E+01
        Reference state                gsolv [1 M gas/solution]
        Free energy shift                  1.0808E-03 Eh       6.7819E-01 kcal/mol
        Temperature                        2.9815E+02 K
        Density                            1.0000E+00 kg/L
        Solvent mass                       1.8000E+01 g/mol
        Interaction kernel             P16
        Born radius scaling (c1)           1.4744E+00
        Born radii integrator          GBOBC
        Born offset                        0.0000E+00 a0       0.0000E+00 AA
        H-bond correction              true
        Ion screening                  false
        Surface tension                    1.0000E-05 Eh       1.5569E+01 dyn/cm
        Grid points                               230 per atom

          ...................................................
          :                      SETUP                      :
          :.................................................:
          :  # basis functions                 320          :
          :  # atomic orbitals                 320          :
          :  # shells                          192          :
          :  # electrons                       354          :
          :  max. iterations                   250          :
          :  Hamiltonian                  GFN2-xTB          :
          :  restarted?                      false          :
          :  GBSA solvation                   true          :
          :  PC potential                    false          :
          :  electronic temp.          300.0000000     K    :
          :  accuracy                    1.0000000          :
          :  -> integral cutoff          0.2500000E+02      :
          :  -> integral neglect         0.1000000E-07      :
          :  -> SCF convergence          0.1000000E-05 Eh   :
          :  -> wf. convergence          0.1000000E-03 e    :
          :  Broyden damping             0.4000000          :
          :  net charge                          0          :
          :  unpaired electrons                  0          :
          ...................................................

 iter      E             dE          RMSdq      gap      omega  full diag
   1   -204.4390523 -0.204439E+03  0.435E+00    2.10       0.0  T
   2   -204.6515268 -0.212474E+00  0.238E+00    1.67       1.0  T
   3   -204.6310116  0.205152E-01  0.109E+00    1.64       1.0  T
   4   -204.6730450 -0.420334E-01  0.341E-01    1.50       1.0  T
   5   -204.6793537 -0.630871E-02  0.132E-01    1.50       1.0  T
   6   -204.6801818 -0.828061E-03  0.654E-02    1.50       1.0  T
   7   -204.6802910 -0.109265E-03  0.314E-02    1.51       1.0  T
   8   -204.6803237 -0.326761E-04  0.133E-02    1.51       1.0  T
   9   -204.6803308 -0.702947E-05  0.716E-03    1.51       1.2  T
  10   -204.6803326 -0.187090E-05  0.379E-03    1.51       2.3  T
  11   -204.6803331 -0.486697E-06  0.182E-03    1.51       4.9  T
  12   -204.6803332 -0.662727E-07  0.885E-04    1.51      10.0  T
  13   -204.6803332 -0.422203E-07  0.374E-04    1.51      23.7  T

   *** convergence criteria satisfied after 13 iterations ***

         #    Occupation            Energy/Eh            Energy/eV
      -------------------------------------------------------------
         1        2.0000           -0.7629391             -20.7606
       ...           ...                  ...                  ...
       171        2.0000           -0.4025988             -10.9553
       172        2.0000           -0.3987524             -10.8506
       173        2.0000           -0.3986488             -10.8478
       174        2.0000           -0.3963858             -10.7862
       175        2.0000           -0.3892900             -10.5931
       176        2.0000           -0.3891576             -10.5895
       177        2.0000           -0.3598092              -9.7909 (HOMO)
       178                         -0.3042239              -8.2784 (LUMO)
       179                         -0.2999992              -8.1634
       180                         -0.2408087              -6.5527
       181                         -0.2359318              -6.4200
       182                         -0.2318771              -6.3097
       ...                                ...                  ...
       320                          0.6951946              18.9172
      -------------------------------------------------------------
                  HL-Gap            0.0555853 Eh            1.5126 eV
             Fermi-level           -0.3320166 Eh           -9.0346 eV

 SCC (total)                   0 d,  0 h,  0 min,  0.197 sec
 SCC setup                      ...        0 min,  0.003 sec (  1.405%)
 Dispersion                     ...        0 min,  0.003 sec (  1.306%)
 classical contributions        ...        0 min,  0.000 sec (  0.074%)
 integral evaluation            ...        0 min,  0.009 sec (  4.550%)
 iterations                     ...        0 min,  0.152 sec ( 77.189%)
 molecular gradient             ...        0 min,  0.029 sec ( 14.574%)
 printout                       ...        0 min,  0.002 sec (  0.885%)

         :::::::::::::::::::::::::::::::::::::::::::::::::::::
         ::                     SUMMARY                     ::
         :::::::::::::::::::::::::::::::::::::::::::::::::::::
         :: total energy            -202.398061371718 Eh    ::
         :: total w/o Gsasa/hb      -202.364672638669 Eh    ::
         :: gradient norm              0.119471876264 Eh/a0 ::
         :: HOMO-LUMO gap              1.512553712732 eV    ::
         ::.................................................::
         :: SCC energy              -204.671483797732 Eh    ::
         :: -> isotropic ES            0.464738139282 Eh    ::
         :: -> anisotropic ES         -0.012114045117 Eh    ::
         :: -> anisotropic XC          0.030382683997 Eh    ::
         :: -> dispersion             -0.162599868541 Eh    ::
         :: -> Gsolv                  -0.084874772383 Eh    ::
         ::    -> Gelec               -0.051486039334 Eh    ::
         ::    -> Gsasa                0.005520401602 Eh    ::
         ::    -> Ghb                 -0.039989894350 Eh    ::
         ::    -> Gshift               0.001080759698 Eh    ::
         :: repulsion energy           2.273422426014 Eh    ::
         :: add. restraining           0.000000000000 Eh    ::
         :: total charge              -0.000000000000 e     ::
         :::::::::::::::::::::::::::::::::::::::::::::::::::::

           -------------------------------------------------
          |                Property Printout                |
           -------------------------------------------------

    * Orbital Energies and Occupations

         #    Occupation            Energy/Eh            Energy/eV
      -------------------------------------------------------------
         1        2.0000           -0.7629391             -20.7606
       ...           ...                  ...                  ...
       165        2.0000           -0.4157580             -11.3134
       166        2.0000           -0.4143791             -11.2758
       167        2.0000           -0.4129944             -11.2381
       168        2.0000           -0.4097820             -11.1507
       169        2.0000           -0.4087982             -11.1240
       170        2.0000           -0.4073480             -11.0845
       171        2.0000           -0.4025988             -10.9553
       172        2.0000           -0.3987524             -10.8506
       173        2.0000           -0.3986488             -10.8478
       174        2.0000           -0.3963858             -10.7862
       175        2.0000           -0.3892900             -10.5931
       176        2.0000           -0.3891576             -10.5895
       177        2.0000           -0.3598092              -9.7909 (HOMO)
       178                         -0.3042239              -8.2784 (LUMO)
       179                         -0.2999992              -8.1634
       180                         -0.2408087              -6.5527
       181                         -0.2359318              -6.4200
       182                         -0.2318771              -6.3097
       183                         -0.2291265              -6.2348
       184                         -0.2235338              -6.0827
       185                         -0.1808029              -4.9199
       186                         -0.1742929              -4.7428
       187                         -0.1368445              -3.7237
       188                         -0.1303276              -3.5464
       ...                                ...                  ...
       320                          0.6951946              18.9172
      -------------------------------------------------------------
                  HL-Gap            0.0555853 Eh            1.5126 eV
             Fermi-level           -0.3320166 Eh           -9.0346 eV

     #   Z          covCN         q      C6AA      α(0)
     1   6 C        2.766     0.351    21.043     7.513
     2   6 C        2.897    -0.080    30.004     8.981
     3   8 O        0.858    -0.482    23.400     6.486
     4   6 C        2.898     0.001    28.009     8.677
     5   6 C        2.900    -0.034    28.846     8.806
     6   6 C        2.900    -0.020    28.510     8.755
     7   6 C        2.894    -0.028    28.709     8.785
     8   6 C        2.896    -0.049    29.224     8.863
     9   6 C        3.729     0.113    18.825     6.194
    10   6 C        3.800    -0.070    21.834     6.653
    11   6 C        3.751    -0.107    22.610     6.781
    12   8 O        1.652    -0.490    22.687     6.430
    13   6 C        2.999     0.002    27.964     8.674
    14   6 C        2.920    -0.092    30.301     9.027
    15   6 C        2.839     0.149    24.749     8.153
    16   6 C        2.924    -0.099    30.504     9.057
    17   6 C        2.835     0.145    24.832     8.166
    18   6 C        3.022    -0.045    29.083     8.846
    19   8 O        1.657    -0.455    21.940     6.323
    20   8 O        1.657    -0.446    21.762     6.297
    21   6 C        3.737     0.254    16.772     5.844
    22   8 O        1.694    -0.374    20.330     6.087
    23   6 C        3.754     0.072    19.427     6.285
    24   6 C        3.721     0.096    19.105     6.243
    25   6 C        3.766     0.105    18.887     6.194
    26   6 C        3.733     0.093    19.119     6.241
    27   6 C        3.750     0.092    19.120     6.236
    28   8 O        1.695    -0.358    20.044     6.045
    29   8 O        1.697    -0.307    19.124     5.904
    30   8 O        1.702    -0.280    18.642     5.829
    31   6 C        3.622     0.237    17.306     5.996
    32   8 O        1.695    -0.370    20.268     6.078
    33   6 C        3.738     0.098    19.036     6.226
    34   6 C        3.721     0.082    19.330     6.279
    35   6 C        3.724     0.088    19.223     6.261
    36   6 C        3.721     0.088    19.226     6.262
    37   6 C        3.745     0.085    19.240     6.257
    38   8 O        1.703    -0.279    18.633     5.828
    39   8 O        1.651    -0.471    22.289     6.373
    40   8 O        1.653    -0.505    23.006     6.475
    41   8 O        1.653    -0.484    22.547     6.410
    42   6 C        3.676     0.071    19.610     6.345
    43   8 O        1.654    -0.487    22.619     6.420
    44   8 O        1.652    -0.498    22.851     6.453
    45   6 C        2.739     0.365    20.806     7.468
    46   6 C        2.897    -0.077    29.910     8.967
    47   6 C        2.901     0.003    27.956     8.669
    48   6 C        2.899    -0.034    28.844     8.806
    49   6 C        2.893    -0.028    28.688     8.782
    50   6 C        3.806    -0.076    21.953     6.670
    51   6 C        3.728     0.118    18.746     6.181
    52   6 C        2.941    -0.002    28.080     8.691
    53   8 O        0.858    -0.489    23.547     6.506
    54   8 O        1.652    -0.509    23.097     6.488
    55   6 C        2.903    -0.057    29.413     8.893
    56   6 C        3.757    -0.117    22.796     6.807
    57   6 C        2.894    -0.052    29.278     8.872
    58   6 C        2.895    -0.039    28.961     8.823
    59   6 C        3.806    -0.063    21.713     6.634
    60   6 C        3.802    -0.057    21.599     6.617
    61   6 C        3.847    -0.019    20.889     6.501
    62   6 C        3.800    -0.065    21.750     6.640
    63   6 C        3.750    -0.103    22.527     6.769
    64   6 C        3.752    -0.098    22.424     6.753
    65   1 H        0.926     0.085     1.931     2.173
    66   1 H        0.926     0.071     2.080     2.255
    67   1 H        0.926     0.066     2.132     2.283
    68   1 H        0.926     0.068     2.103     2.268
    69   1 H        0.926     0.052     2.298     2.371
    70   1 H        0.926     0.060     2.195     2.317
    71   1 H        0.923     0.043     2.405     2.425
    72   1 H        0.924     0.039     2.459     2.452
    73   1 H        0.924     0.042     2.426     2.436
    74   1 H        0.924     0.039     2.459     2.452
    75   1 H        0.924     0.046     2.376     2.411
    76   1 H        0.924     0.036     2.504     2.474
    77   1 H        0.804     0.337     0.620     1.236
    78   1 H        0.926     0.071     2.073     2.252
    79   1 H        0.926     0.080     1.975     2.198
    80   1 H        0.804     0.389     0.505     1.117
    81   1 H        0.804     0.383     0.517     1.129
    82   1 H        0.924     0.075     2.036     2.231
    83   1 H        0.924     0.074     2.039     2.233
    84   1 H        0.923     0.053     2.281     2.362
    85   1 H        0.924     0.051     2.311     2.377
    86   1 H        0.923     0.081     1.968     2.194
    87   1 H        0.924     0.059     2.214     2.327
    88   1 H        0.923     0.053     2.279     2.361
    89   1 H        0.923     0.055     2.258     2.350
    90   1 H        0.923     0.073     2.053     2.241
    91   1 H        0.923     0.063     2.166     2.301
    92   1 H        0.924     0.033     2.550     2.497
    93   1 H        0.924     0.061     2.187     2.313
    94   1 H        0.924     0.077     2.013     2.219
    95   1 H        0.802     0.324     0.654     1.270
    96   1 H        0.804     0.379     0.524     1.137
    97   1 H        0.803     0.363     0.560     1.175
    98   1 H        0.924     0.075     2.030     2.228
    99   1 H        0.924     0.053     2.284     2.363
   100   1 H        0.804     0.355     0.577     1.194
   101   1 H        0.803     0.342     0.607     1.224
   102   1 H        0.926     0.080     1.976     2.198
   103   1 H        0.926     0.078     2.003     2.213
   104   1 H        0.926     0.058     2.217     2.329
   105   1 H        0.926     0.061     2.184     2.311
   106   1 H        0.924     0.062     2.173     2.305
   107   1 H        0.924     0.066     2.125     2.280
   108   1 H        0.923     0.018     2.770     2.603
   109   1 H        0.804     0.352     0.583     1.199
   110   1 H        0.926     0.017     2.784     2.609
   111   1 H        0.924     0.067     2.116     2.275
   112   1 H        0.925     0.056     2.246     2.344
   113   1 H        0.924     0.053     2.285     2.364
   114   1 H        0.926     0.041     2.439     2.442
   115   1 H        0.926     0.025     2.656     2.548
   116   1 H        0.924     0.045     2.387     2.416
   117   1 H        0.924     0.066     2.125     2.280
   118   1 H        0.924     0.026     2.642     2.542
   119   1 H        0.924     0.017     2.781     2.608
   120   1 H        0.923     0.032     2.565     2.505
   121   1 H        0.924     0.023     2.685     2.562
   122   1 H        0.924     0.056     2.248     2.344
   123   1 H        0.924     0.030     2.593     2.518
   124   1 H        0.924     0.031     2.566     2.505
   125   1 H        0.924     0.034     2.533     2.489
   126   1 H        0.925     0.037     2.487     2.466
   127   1 H        0.924     0.030     2.581     2.512
   128   1 H        0.924     0.020     2.731     2.584

 Mol. C6AA /au·bohr⁶  :     156952.964412
 Mol. C8AA /au·bohr⁸  :    3572414.596635
 Mol. α(0) /au        :        597.774336


Wiberg/Mayer (AO) data.
largest (>0.10) Wiberg bond orders for each atom

 ---------------------------------------------------------------------------
     #   Z sym  total        # sym  WBO       # sym  WBO       # sym  WBO
 ---------------------------------------------------------------------------
     1   6 C    3.895 --     3 O    1.663    38 O    1.078     2 C    1.076
     2   6 C    3.939 --     4 C    1.708     1 C    1.076    65 H    0.958
                             6 C    0.105
     3   8 O    1.944 --     1 C    1.663    38 O    0.148
     4   6 C    3.979 --     2 C    1.708     5 C    1.177    66 H    0.954
     5   6 C    3.982 --     6 C    1.691     4 C    1.177    67 H    0.960
                             8 C    0.112
     6   6 C    3.966 --     5 C    1.691     7 C    1.155    68 H    0.962
                             2 C    0.105
     7   6 C    3.989 --     8 C    1.803     6 C    1.155    69 H    0.952
     8   6 C    3.933 --     7 C    1.803     9 C    1.002    70 H    0.962
                             5 C    0.112
     9   6 C    3.951 --     8 C    1.002    10 C    0.985    12 O    0.967
                            71 H    0.952
    10   6 C    3.995 --    11 C    1.022     9 C    0.985    72 H    0.975
                            73 H    0.974
    11   6 C    3.994 --    10 C    1.022    76 H    0.987    74 H    0.986
                            75 H    0.985
    12   8 O    1.940 --     9 C    0.967    77 H    0.868
    13   6 C    3.984 --    14 C    1.415    18 C    1.396    23 C    1.009
    14   6 C    3.977 --    13 C    1.415    15 C    1.364    78 H    0.963
    15   6 C    3.946 --    16 C    1.372    14 C    1.364    20 O    1.083
    16   6 C    3.975 --    17 C    1.388    15 C    1.372    79 H    0.961
    17   6 C    3.944 --    16 C    1.388    18 C    1.334    19 O    1.080
    18   6 C    3.972 --    13 C    1.396    17 C    1.334    21 C    0.974
    19   8 O    2.076 --    17 C    1.080    80 H    0.830
    20   8 O    2.078 --    15 C    1.083    81 H    0.835
    21   6 C    3.914 --    18 C    0.974    22 O    0.953    28 O    0.946
                            24 C    0.934
    22   8 O    2.048 --    23 C    0.959    21 C    0.953
    23   6 C    3.934 --    13 C    1.009    22 O    0.959    82 H    0.954
                            83 H    0.954
    24   6 C    3.957 --    44 O    0.997    25 C    0.968    84 H    0.956
                            21 C    0.934
    25   6 C    3.929 --    26 C    0.969    24 C    0.968    30 O    0.939
                            85 H    0.938
    26   6 C    3.939 --    25 C    0.969    29 O    0.965    27 C    0.958
                            86 H    0.949
    27   6 C    3.937 --    42 C    0.980    28 O    0.960    26 C    0.958
                            87 H    0.946
    28   8 O    2.062 --    27 C    0.960    21 C    0.946
    29   8 O    2.116 --    31 C    0.997    26 C    0.965
    30   8 O    2.286 --    45 C    1.099    25 C    0.939    53 O    0.144
    31   6 C    3.922 --    29 O    0.997    36 C    0.954    88 H    0.947
                            32 O    0.946
    32   8 O    2.053 --    33 C    0.953    31 C    0.946
    33   6 C    3.938 --    37 C    0.990    34 C    0.967    89 H    0.954
                            32 O    0.953
    34   6 C    3.956 --    39 O    0.999    33 C    0.967    35 C    0.961
                            90 H    0.956
    35   6 C    3.963 --    41 O    1.007    36 C    0.962    34 C    0.961
                            91 H    0.959
    36   6 C    3.961 --    40 O    0.996    35 C    0.962    31 C    0.954
                            92 H    0.943
    37   6 C    3.936 --    33 C    0.990    38 O    0.962    94 H    0.959
                            93 H    0.959
    38   8 O    2.265 --     1 C    1.078    37 C    0.962     3 O    0.148
    39   8 O    1.953 --    34 C    0.999    95 H    0.852
    40   8 O    1.916 --    36 C    0.996    96 H    0.836
    41   8 O    1.939 --    35 C    1.007    97 H    0.845
    42   6 C    3.955 --    43 O    1.010    27 C    0.980    99 H    0.966
                            98 H    0.965
    43   8 O    1.928 --    42 C    1.010   100 H    0.859
    44   8 O    1.918 --    24 C    0.997   101 H    0.831
    45   6 C    3.895 --    53 O    1.609    30 O    1.099    46 C    1.072
    46   6 C    3.977 --    47 C    1.757    45 C    1.072   102 H    0.948
    47   6 C    3.972 --    46 C    1.757    48 C    1.117   103 H    0.953
    48   6 C    3.987 --    49 C    1.822    47 C    1.117   104 H    0.947
    49   6 C    3.979 --    48 C    1.822    50 C    1.039   105 H    0.964
    50   6 C    3.985 --    49 C    1.039   106 H    0.967   107 H    0.963
                            51 C    0.940
    51   6 C    3.950 --    52 C    0.994    54 O    0.981   108 H    0.961
                            50 C    0.940
    52   6 C    3.975 --    55 C    1.771    56 C    1.034    51 C    0.994
                            58 C    0.122
    53   8 O    1.980 --    45 C    1.609    30 O    0.144
    54   8 O    1.914 --    51 C    0.981   109 H    0.859
    55   6 C    3.988 --    52 C    1.771    57 C    1.130   110 H    0.963
    56   6 C    3.994 --    52 C    1.034   111 H    0.977   113 H    0.974
                           112 H    0.956
    57   6 C    3.988 --    58 C    1.811    55 C    1.130   114 H    0.960
    58   6 C    3.983 --    57 C    1.811    59 C    1.035   115 H    0.964
                            52 C    0.122
    59   6 C    3.995 --    58 C    1.035    60 C    1.002   116 H    0.959
                           117 H    0.941
    60   6 C    3.993 --    59 C    1.002    61 C    0.993   119 H    0.976
                           118 H    0.969
    61   6 C    3.993 --    64 C    1.010    62 C    0.995    60 C    0.993
                           120 H    0.961
    62   6 C    3.994 --    63 C    1.021    61 C    0.995   121 H    0.977
                           122 H    0.966
    63   6 C    3.997 --    62 C    1.021   123 H    0.987   125 H    0.987
                           124 H    0.985
    64   6 C    3.997 --    61 C    1.010   127 H    0.985   128 H    0.985
                           126 H    0.979
    65   1 H    0.992 --     2 C    0.958
    66   1 H    0.995 --     4 C    0.954
    67   1 H    0.995 --     5 C    0.960
    68   1 H    0.994 --     6 C    0.962
    69   1 H    0.997 --     7 C    0.952
    70   1 H    0.996 --     8 C    0.962
    71   1 H    0.997 --     9 C    0.952
    72   1 H    0.998 --    10 C    0.975
    73   1 H    0.998 --    10 C    0.974
    74   1 H    0.998 --    11 C    0.986
    75   1 H    0.998 --    11 C    0.985
    76   1 H    0.999 --    11 C    0.987
    77   1 H    0.886 --    12 O    0.868
    78   1 H    0.995 --    14 C    0.963
    79   1 H    0.993 --    16 C    0.961
    80   1 H    0.848 --    19 O    0.830
    81   1 H    0.853 --    20 O    0.835
    82   1 H    0.994 --    23 C    0.954
    83   1 H    0.994 --    23 C    0.954
    84   1 H    0.997 --    24 C    0.956
    85   1 H    0.997 --    25 C    0.938
    86   1 H    0.993 --    26 C    0.949
    87   1 H    0.996 --    27 C    0.946
    88   1 H    0.997 --    31 C    0.947
    89   1 H    0.997 --    33 C    0.954
    90   1 H    0.994 --    34 C    0.956
    91   1 H    0.996 --    35 C    0.959
    92   1 H    0.999 --    36 C    0.943
    93   1 H    0.996 --    37 C    0.959
    94   1 H    0.993 --    37 C    0.959
    95   1 H    0.895 --    39 O    0.852
    96   1 H    0.856 --    40 O    0.836
    97   1 H    0.869 --    41 O    0.845
    98   1 H    0.994 --    42 C    0.965
    99   1 H    0.997 --    42 C    0.966
   100   1 H    0.874 --    43 O    0.859
   101   1 H    0.883 --    44 O    0.831
   102   1 H    0.994 --    46 C    0.948
   103   1 H    0.994 --    47 C    0.953
   104   1 H    0.996 --    48 C    0.947
   105   1 H    0.996 --    49 C    0.964
   106   1 H    0.994 --    50 C    0.967
   107   1 H    0.995 --    50 C    0.963
   108   1 H    0.999 --    51 C    0.961
   109   1 H    0.875 --    54 O    0.859
   110   1 H    1.000 --    55 C    0.963
   111   1 H    0.995 --    56 C    0.977
   112   1 H    0.996 --    56 C    0.956
   113   1 H    0.997 --    56 C    0.974
   114   1 H    0.998 --    57 C    0.960
   115   1 H    0.999 --    58 C    0.964
   116   1 H    0.998 --    59 C    0.959
   117   1 H    0.987 --    59 C    0.941
   118   1 H    0.999 --    60 C    0.969
   119   1 H    0.999 --    60 C    0.976
   120   1 H    0.998 --    61 C    0.961
   121   1 H    0.999 --    62 C    0.977
   122   1 H    0.997 --    62 C    0.966
   123   1 H    0.999 --    63 C    0.987
   124   1 H    0.999 --    63 C    0.985
   125   1 H    0.999 --    63 C    0.987
   126   1 H    0.999 --    64 C    0.979
   127   1 H    0.999 --    64 C    0.985
   128   1 H    1.000 --    64 C    0.985
 ---------------------------------------------------------------------------

Topologies differ in total number of bonds
Writing topology from bond orders to xtbtopo.mol

molecular dipole:
                 x           y           z       tot (Debye)
 q only:        1.739       0.545       1.154
   full:        1.523       0.939       0.961       5.164
molecular quadrupole (traceless):
                xx          xy          yy          xz          yz          zz
 q only:       75.808     -16.215     -35.320       4.156      17.107     -40.488
  q+dip:       73.739     -20.309     -36.083       5.718      20.481     -37.656
   full:       71.514     -20.376     -36.217       5.163      21.800     -35.297


           -------------------------------------------------
          | TOTAL ENERGY             -202.398061371718 Eh   |
          | GRADIENT NORM               0.119471876264 Eh/α |
          | HOMO-LUMO GAP               1.512553712732 eV   |
           -------------------------------------------------

------------------------------------------------------------------------
 * finished run on 2026/06/19 at 18:52:07.501     
------------------------------------------------------------------------
 total:
 * wall-time:     0 d,  0 h,  0 min,  0.271 sec
 *  cpu-time:     0 d,  0 h,  0 min,  4.080 sec
 * ratio c/w:    15.030 speedup
 SCF:
 * wall-time:     0 d,  0 h,  0 min,  0.198 sec
 *  cpu-time:     0 d,  0 h,  0 min,  3.120 sec
 * ratio c/w:    15.779 speedup

normal termination of xtb
