      -----------------------------------------------------------      
     |                   =====================                   |     
     |                           x T B                           |     
     |                   =====================                   |     
     |                         S. Grimme                         |     
     |          Mulliken Center for Theoretical Chemistry        |     
     |                    University of Bonn                     |     
      -----------------------------------------------------------      

   * xtb version 6.7.1 (edcfbbe) compiled by 'albert@albert-system' on 2024-07-22

   xtb is free software: you can redistribute it and/or modify it under
   the terms of the GNU Lesser General Public License as published by
   the Free Software Foundation, either version 3 of the License, or
   (at your option) any later version.
   
   xtb is distributed in the hope that it will be useful,
   but WITHOUT ANY WARRANTY; without even the implied warranty of
   MERCHANTABILITY or FITNESS FOR A PARTICULAR PURPOSE.  See the
   GNU Lesser General Public License for more details.
   
   Cite this work as:
   * C. Bannwarth, E. Caldeweyher, S. Ehlert, A. Hansen, P. Pracht,
     J. Seibert, S. Spicher, S. Grimme, WIREs Comput. Mol. Sci., 2020, 11,
     e01493. DOI: 10.1002/wcms.1493
   
   for GFN2-xTB:
   * C. Bannwarth, S. Ehlert and S. Grimme., J. Chem. Theory Comput., 2019,
     15, 1652-1671. DOI: 10.1021/acs.jctc.8b01176
   for GFN1-xTB:
   * S. Grimme, C. Bannwarth, P. Shushkov, J. Chem. Theory Comput., 2017,
     13, 1989-2009. DOI: 10.1021/acs.jctc.7b00118
   for GFN0-xTB:
   * P. Pracht, E. Caldeweyher, S. Ehlert, S. Grimme, ChemRxiv, 2019, preprint.
     DOI: 10.26434/chemrxiv.8326202.v1
   for GFN-FF:
   * S. Spicher and S. Grimme, Angew. Chem. Int. Ed., 2020, 59, 15665-15673.
     DOI: 10.1002/anie.202004239
   
   for ALPB and GBSA implicit solvation:
   * S. Ehlert, M. Stahn, S. Spicher, S. Grimme, J. Chem. Theory Comput.,
     2021, 17, 4250-4261. DOI: 10.1021/acs.jctc.1c00471
   
   for ddCOSMO and CPCM-X implicit solvation:
   * M. Stahn, S. Ehlert, S. Grimme, J. Phys. Chem. A,
     2023, XX, XXXX-XXXX. DOI: 10.1021/acs.jpca.3c04382
   
   for DFT-D4:
   * E. Caldeweyher, C. Bannwarth and S. Grimme, J. Chem. Phys., 2017,
     147, 034112. DOI: 10.1063/1.4993215
   * E. Caldeweyher, S. Ehlert, A. Hansen, H. Neugebauer, S. Spicher,
     C. Bannwarth and S. Grimme, J. Chem. Phys., 2019, 150, 154122.
     DOI: 10.1063/1.5090222
   * E. Caldeweyher, J.-M. Mewes, S. Ehlert and S. Grimme, Phys. Chem. Chem. Phys.
     2020, 22, 8499-8512. DOI: 10.1039/D0CP00502A
   
   for sTDA-xTB:
   * S. Grimme and C. Bannwarth, J. Chem. Phys., 2016, 145, 054103.
     DOI: 10.1063/1.4959605
   
   in the mass-spec context:
   * V. Asgeirsson, C. Bauer and S. Grimme, Chem. Sci., 2017, 8, 4879.
     DOI: 10.1039/c7sc00601b
   * J. Koopman and S. Grimme, ACS Omega 2019, 4, 12, 15120-15133.
     DOI: 10.1021/acsomega.9b02011
   
   for metadynamics refer to:
   * S. Grimme, J. Chem. Theory Comput., 2019, 155, 2847-2862
     DOI: 10.1021/acs.jctc.9b00143
   
   for SPH calculations refer to:
   * S. Spicher and S. Grimme, J. Chem. Theory Comput., 2021, 17, 1701-1714
     DOI: 10.1021/acs.jctc.0c01306
   
   for ONIOM refer to:
   * C. Plett, A. Katbashev, S. Ehlert, S. Grimme, M. Bursch,
     Phys. Chem. Chem. Phys., 2023, 25, 17860-17868. DOI: 10.1039/D3CP02178E
   
   for DIPRO refer to:
   * J. Kohn, N. Gildemeister, S. Grimme, D. Fazzi, A. Hansen,
     J. Chem. Phys., 2023, just accepted.
   
   for PTB refer to:
   * S. Grimme, M. Mueller, A. Hansen, J. Chem. Phys., 2023, 158, 124111.
     DOI: 10.1063/5.0137838
   
   with help from (in alphabetical order)
   P. Atkinson, C. Bannwarth, F. Bohle, G. Brandenburg, E. Caldeweyher
   M. Checinski, S. Dohm, S. Ehlert, S. Ehrlich, I. Gerasimov, C. Hölzer
   A. Katbashev, J. Kohn, J. Koopman, C. Lavigne, S. Lehtola, F. März, M. Müller,
   F. Musil, H. Neugebauer, J. Pisarek, C. Plett, P. Pracht, F. Pultar,
   J. Seibert, P. Shushkov, S. Spicher, M. Stahn, M. Steiner, T. Strunk,
   J. Stückrath, T. Rose, and J. Unsleber
   
 * started run on 2026/06/19 at 18:52:06.714     
   ID    Z sym.   atoms
    1    6 C      1, 2, 4-11, 13-18, 21, 23-27, 31, 33-37, 42, 45-52, 55-64
    2    8 O      3, 12, 19, 20, 22, 28-30, 32, 38-41, 43, 44, 53, 54
    3    1 H      65-128

           -------------------------------------------------
          |                Calculation Setup                |
           -------------------------------------------------

          program call               : xtb PAPU-0002/conf03.xyz --gfn 2 --alpb water --chrg 0 --uhf 0 --namespace PAPU-0002/conf03_water
          hostname                   : cpu10
          calculation namespace      : PAPU-0002/conf03_water
          coordinate file            : PAPU-0002/conf03.xyz
          omp threads                :                    16


           -------------------------------------------------
          |                 G F N 2 - x T B                 |
           -------------------------------------------------

        Reference                      10.1021/acs.jctc.8b01176
      * Hamiltonian:
        H0-scaling (s, p, d)           1.850000    2.230000    2.230000
        zeta-weighting                 0.500000
      * Dispersion:
        s8                             2.700000
        a1                             0.520000
        a2                             5.000000
        s9                             5.000000
      * Repulsion:
        kExp                           1.500000    1.000000
        rExp                           1.000000
      * Coulomb:
        alpha                          2.000000
        third order                    shell-resolved
        anisotropic                    true
        a3                             3.000000
        a5                             4.000000
        cn-shift                       1.200000
        cn-exp                         4.000000
        max-rad                        5.000000

      * Solvation model:               ALPB
        Solvent                        water
        Parameter file                 internal GFN2-xTB/ALPB
        Dielectric constant                8.0200E+01
        Reference state                gsolv [1 M gas/solution]
        Free energy shift                  1.0808E-03 Eh       6.7819E-01 kcal/mol
        Temperature                        2.9815E+02 K
        Density                            1.0000E+00 kg/L
        Solvent mass                       1.8000E+01 g/mol
        Interaction kernel             P16
        Born radius scaling (c1)           1.4744E+00
        Born radii integrator          GBOBC
        Born offset                        0.0000E+00 a0       0.0000E+00 AA
        H-bond correction              true
        Ion screening                  false
        Surface tension                    1.0000E-05 Eh       1.5569E+01 dyn/cm
        Grid points                               230 per atom

          ...................................................
          :                      SETUP                      :
          :.................................................:
          :  # basis functions                 320          :
          :  # atomic orbitals                 320          :
          :  # shells                          192          :
          :  # electrons                       354          :
          :  max. iterations                   250          :
          :  Hamiltonian                  GFN2-xTB          :
          :  restarted?                      false          :
          :  GBSA solvation                   true          :
          :  PC potential                    false          :
          :  electronic temp.          300.0000000     K    :
          :  accuracy                    1.0000000          :
          :  -> integral cutoff          0.2500000E+02      :
          :  -> integral neglect         0.1000000E-07      :
          :  -> SCF convergence          0.1000000E-05 Eh   :
          :  -> wf. convergence          0.1000000E-03 e    :
          :  Broyden damping             0.4000000          :
          :  net charge                          0          :
          :  unpaired electrons                  0          :
          ...................................................

 iter      E             dE          RMSdq      gap      omega  full diag
   1   -204.4370249 -0.204437E+03  0.434E+00    2.14       0.0  T
   2   -204.6492970 -0.212272E+00  0.238E+00    1.73       1.0  T
   3   -204.6297491  0.195478E-01  0.109E+00    1.71       1.0  T
   4   -204.6706918 -0.409426E-01  0.338E-01    1.57       1.0  T
   5   -204.6768096 -0.611780E-02  0.133E-01    1.57       1.0  T
   6   -204.6776400 -0.830429E-03  0.653E-02    1.57       1.0  T
   7   -204.6777524 -0.112372E-03  0.315E-02    1.58       1.0  T
   8   -204.6777847 -0.323336E-04  0.132E-02    1.58       1.0  T
   9   -204.6777915 -0.681639E-05  0.711E-03    1.58       1.2  T
  10   -204.6777933 -0.179786E-05  0.377E-03    1.58       2.3  T
  11   -204.6777938 -0.476173E-06  0.180E-03    1.58       4.9  T
  12   -204.6777939 -0.599919E-07  0.891E-04    1.58       9.9  T
  13   -204.6777939 -0.433950E-07  0.371E-04    1.58      23.8  T

   *** convergence criteria satisfied after 13 iterations ***

         #    Occupation            Energy/Eh            Energy/eV
      -------------------------------------------------------------
         1        2.0000           -0.7631078             -20.7652
       ...           ...                  ...                  ...
       171        2.0000           -0.4026234             -10.9559
       172        2.0000           -0.3993159             -10.8659
       173        2.0000           -0.3988992             -10.8546
       174        2.0000           -0.3975828             -10.8188
       175        2.0000           -0.3894395             -10.5972
       176        2.0000           -0.3879508             -10.5567
       177        2.0000           -0.3622048              -9.8561 (HOMO)
       178                         -0.3040569              -8.2738 (LUMO)
       179                         -0.3014004              -8.2015
       180                         -0.2404590              -6.5432
       181                         -0.2370911              -6.4516
       182                         -0.2320238              -6.3137
       ...                                ...                  ...
       320                          0.6961710              18.9438
      -------------------------------------------------------------
                  HL-Gap            0.0581479 Eh            1.5823 eV
             Fermi-level           -0.3331309 Eh           -9.0650 eV

 SCC (total)                   0 d,  0 h,  0 min,  0.198 sec
 SCC setup                      ...        0 min,  0.003 sec (  1.358%)
 Dispersion                     ...        0 min,  0.004 sec (  1.848%)
 classical contributions        ...        0 min,  0.000 sec (  0.049%)
 integral evaluation            ...        0 min,  0.009 sec (  4.421%)
 iterations                     ...        0 min,  0.153 sec ( 77.344%)
 molecular gradient             ...        0 min,  0.029 sec ( 14.681%)
 printout                       ...        0 min,  0.001 sec (  0.275%)

         :::::::::::::::::::::::::::::::::::::::::::::::::::::
         ::                     SUMMARY                     ::
         :::::::::::::::::::::::::::::::::::::::::::::::::::::
         :: total energy            -202.395931760671 Eh    ::
         :: total w/o Gsasa/hb      -202.362568523599 Eh    ::
         :: gradient norm              0.120001804950 Eh/a0 ::
         :: HOMO-LUMO gap              1.582285184999 eV    ::
         ::.................................................::
         :: SCC energy              -204.669055245794 Eh    ::
         :: -> isotropic ES            0.464562634252 Eh    ::
         :: -> anisotropic ES         -0.013221331545 Eh    ::
         :: -> anisotropic XC          0.030418027617 Eh    ::
         :: -> dispersion             -0.162859357634 Eh    ::
         :: -> Gsolv                  -0.084508997845 Eh    ::
         ::    -> Gelec               -0.051145760773 Eh    ::
         ::    -> Gsasa                0.005450212647 Eh    ::
         ::    -> Ghb                 -0.039894209418 Eh    ::
         ::    -> Gshift               0.001080759698 Eh    ::
         :: repulsion energy           2.273123485123 Eh    ::
         :: add. restraining           0.000000000000 Eh    ::
         :: total charge              -0.000000000000 e     ::
         :::::::::::::::::::::::::::::::::::::::::::::::::::::

           -------------------------------------------------
          |                Property Printout                |
           -------------------------------------------------

    * Orbital Energies and Occupations

         #    Occupation            Energy/Eh            Energy/eV
      -------------------------------------------------------------
         1        2.0000           -0.7631078             -20.7652
       ...           ...                  ...                  ...
       165        2.0000           -0.4154153             -11.3040
       166        2.0000           -0.4146287             -11.2826
       167        2.0000           -0.4135886             -11.2543
       168        2.0000           -0.4113647             -11.1938
       169        2.0000           -0.4085200             -11.1164
       170        2.0000           -0.4052529             -11.0275
       171        2.0000           -0.4026234             -10.9559
       172        2.0000           -0.3993159             -10.8659
       173        2.0000           -0.3988992             -10.8546
       174        2.0000           -0.3975828             -10.8188
       175        2.0000           -0.3894395             -10.5972
       176        2.0000           -0.3879508             -10.5567
       177        2.0000           -0.3622048              -9.8561 (HOMO)
       178                         -0.3040569              -8.2738 (LUMO)
       179                         -0.3014004              -8.2015
       180                         -0.2404590              -6.5432
       181                         -0.2370911              -6.4516
       182                         -0.2320238              -6.3137
       183                         -0.2292537              -6.2383
       184                         -0.2228126              -6.0630
       185                         -0.1799161              -4.8958
       186                         -0.1740016              -4.7348
       187                         -0.1385403              -3.7699
       188                         -0.1292487              -3.5170
       ...                                ...                  ...
       320                          0.6961710              18.9438
      -------------------------------------------------------------
                  HL-Gap            0.0581479 Eh            1.5823 eV
             Fermi-level           -0.3331309 Eh           -9.0650 eV

     #   Z          covCN         q      C6AA      α(0)
     1   6 C        2.771     0.350    21.056     7.515
     2   6 C        2.898    -0.081    30.015     8.983
     3   8 O        0.858    -0.484    23.428     6.490
     4   6 C        2.898     0.001    28.001     8.676
     5   6 C        2.900    -0.035    28.861     8.808
     6   6 C        2.900    -0.020    28.512     8.755
     7   6 C        2.894    -0.030    28.741     8.790
     8   6 C        2.896    -0.049    29.209     8.861
     9   6 C        3.729     0.110    18.865     6.201
    10   6 C        3.800    -0.071    21.856     6.656
    11   6 C        3.751    -0.109    22.644     6.786
    12   8 O        1.652    -0.493    22.739     6.437
    13   6 C        2.999     0.002    27.964     8.674
    14   6 C        2.920    -0.092    30.301     9.027
    15   6 C        2.839     0.150    24.748     8.153
    16   6 C        2.924    -0.099    30.503     9.057
    17   6 C        2.835     0.145    24.831     8.166
    18   6 C        3.022    -0.045    29.083     8.846
    19   8 O        1.657    -0.455    21.945     6.324
    20   8 O        1.657    -0.446    21.761     6.297
    21   6 C        3.738     0.254    16.771     5.844
    22   8 O        1.694    -0.374    20.332     6.088
    23   6 C        3.754     0.072    19.427     6.285
    24   6 C        3.721     0.096    19.103     6.242
    25   6 C        3.767     0.105    18.890     6.195
    26   6 C        3.733     0.094    19.108     6.239
    27   6 C        3.750     0.093    19.107     6.234
    28   8 O        1.695    -0.358    20.045     6.045
    29   8 O        1.697    -0.308    19.129     5.905
    30   8 O        1.702    -0.282    18.674     5.834
    31   6 C        3.621     0.237    17.308     5.997
    32   8 O        1.695    -0.368    20.229     6.072
    33   6 C        3.736     0.097    19.057     6.230
    34   6 C        3.722     0.082    19.330     6.279
    35   6 C        3.724     0.088    19.220     6.260
    36   6 C        3.721     0.089    19.217     6.261
    37   6 C        3.752     0.085    19.226     6.253
    38   8 O        1.703    -0.281    18.664     5.833
    39   8 O        1.651    -0.472    22.296     6.374
    40   8 O        1.653    -0.506    23.016     6.476
    41   8 O        1.653    -0.484    22.548     6.410
    42   6 C        3.676     0.072    19.588     6.341
    43   8 O        1.654    -0.482    22.515     6.405
    44   8 O        1.652    -0.498    22.850     6.453
    45   6 C        2.740     0.366    20.799     7.467
    46   6 C        2.897    -0.077    29.925     8.969
    47   6 C        2.901     0.005    27.913     8.663
    48   6 C        2.899    -0.034    28.852     8.807
    49   6 C        2.893    -0.028    28.699     8.783
    50   6 C        3.806    -0.076    21.952     6.670
    51   6 C        3.728     0.118    18.748     6.182
    52   6 C        2.941    -0.001    28.042     8.685
    53   8 O        0.858    -0.490    23.560     6.508
    54   8 O        1.652    -0.509    23.097     6.488
    55   6 C        2.904    -0.057    29.421     8.894
    56   6 C        3.757    -0.118    22.804     6.808
    57   6 C        2.894    -0.049    29.206     8.861
    58   6 C        2.896    -0.040    28.990     8.828
    59   6 C        3.805    -0.064    21.716     6.634
    60   6 C        3.802    -0.049    21.458     6.595
    61   6 C        3.847    -0.023    20.947     6.510
    62   6 C        3.800    -0.054    21.547     6.609
    63   6 C        3.750    -0.105    22.578     6.777
    64   6 C        3.753    -0.109    22.652     6.787
    65   1 H        0.926     0.084     1.936     2.176
    66   1 H        0.926     0.070     2.090     2.261
    67   1 H        0.926     0.065     2.142     2.289
    68   1 H        0.926     0.067     2.115     2.274
    69   1 H        0.926     0.057     2.234     2.337
    70   1 H        0.926     0.059     2.206     2.323
    71   1 H        0.923     0.052     2.293     2.368
    72   1 H        0.924     0.041     2.439     2.442
    73   1 H        0.924     0.041     2.429     2.437
    74   1 H        0.924     0.039     2.458     2.452
    75   1 H        0.924     0.046     2.377     2.411
    76   1 H        0.924     0.036     2.502     2.473
    77   1 H        0.804     0.336     0.622     1.239
    78   1 H        0.926     0.071     2.072     2.251
    79   1 H        0.926     0.080     1.975     2.197
    80   1 H        0.804     0.389     0.505     1.116
    81   1 H        0.804     0.383     0.517     1.129
    82   1 H        0.924     0.075     2.032     2.229
    83   1 H        0.924     0.074     2.041     2.234
    84   1 H        0.923     0.053     2.278     2.361
    85   1 H        0.924     0.052     2.299     2.371
    86   1 H        0.923     0.080     1.976     2.198
    87   1 H        0.924     0.058     2.227     2.334
    88   1 H        0.923     0.053     2.285     2.364
    89   1 H        0.923     0.057     2.240     2.340
    90   1 H        0.923     0.073     2.057     2.243
    91   1 H        0.923     0.063     2.168     2.303
    92   1 H        0.924     0.032     2.553     2.499
    93   1 H        0.924     0.061     2.189     2.314
    94   1 H        0.924     0.077     2.012     2.218
    95   1 H        0.802     0.324     0.652     1.269
    96   1 H        0.804     0.380     0.524     1.137
    97   1 H        0.803     0.363     0.559     1.174
    98   1 H        0.924     0.072     2.069     2.249
    99   1 H        0.924     0.052     2.289     2.366
   100   1 H        0.804     0.354     0.580     1.196
   101   1 H        0.803     0.342     0.608     1.225
   102   1 H        0.926     0.081     1.969     2.194
   103   1 H        0.926     0.079     1.986     2.204
   104   1 H        0.926     0.060     2.202     2.320
   105   1 H        0.926     0.062     2.179     2.308
   106   1 H        0.924     0.062     2.173     2.305
   107   1 H        0.924     0.067     2.121     2.278
   108   1 H        0.923     0.018     2.766     2.601
   109   1 H        0.804     0.352     0.583     1.199
   110   1 H        0.926     0.017     2.772     2.603
   111   1 H        0.925     0.057     2.231     2.336
   112   1 H        0.924     0.052     2.290     2.366
   113   1 H        0.924     0.068     2.107     2.270
   114   1 H        0.926     0.043     2.406     2.425
   115   1 H        0.926     0.023     2.685     2.562
   116   1 H        0.924     0.055     2.260     2.351
   117   1 H        0.924     0.039     2.459     2.452
   118   1 H        0.924     0.017     2.781     2.608
   119   1 H        0.924     0.022     2.706     2.572
   120   1 H        0.923     0.034     2.535     2.490
   121   1 H        0.924     0.018     2.768     2.602
   122   1 H        0.924     0.034     2.530     2.487
   123   1 H        0.924     0.036     2.498     2.472
   124   1 H        0.924     0.035     2.510     2.477
   125   1 H        0.924     0.034     2.534     2.489
   126   1 H        0.924     0.024     2.678     2.559
   127   1 H        0.925     0.061     2.189     2.314
   128   1 H        0.924     0.028     2.610     2.527

 Mol. C6AA /au·bohr⁶  :     156944.263891
 Mol. C8AA /au·bohr⁸  :    3572297.997087
 Mol. α(0) /au        :        597.754404


Wiberg/Mayer (AO) data.
largest (>0.10) Wiberg bond orders for each atom

 ---------------------------------------------------------------------------
     #   Z sym  total        # sym  WBO       # sym  WBO       # sym  WBO
 ---------------------------------------------------------------------------
     1   6 C    3.895 --     3 O    1.660     2 C    1.078    38 O    1.077
     2   6 C    3.938 --     4 C    1.706     1 C    1.078    65 H    0.958
                             6 C    0.104
     3   8 O    1.942 --     1 C    1.660    38 O    0.147
     4   6 C    3.979 --     2 C    1.706     5 C    1.178    66 H    0.954
     5   6 C    3.984 --     6 C    1.688     4 C    1.178    67 H    0.960
                             8 C    0.113
     6   6 C    3.966 --     5 C    1.688     7 C    1.157    68 H    0.962
                             2 C    0.104
     7   6 C    3.989 --     8 C    1.801     6 C    1.157    69 H    0.955
     8   6 C    3.932 --     7 C    1.801     9 C    1.003    70 H    0.962
                             5 C    0.113
     9   6 C    3.950 --     8 C    1.003    10 C    0.988    12 O    0.970
                            71 H    0.946
    10   6 C    3.996 --    11 C    1.022     9 C    0.988    72 H    0.975
                            73 H    0.974
    11   6 C    3.994 --    10 C    1.022    76 H    0.987    74 H    0.986
                            75 H    0.985
    12   8 O    1.937 --     9 C    0.970    77 H    0.869
    13   6 C    3.984 --    14 C    1.415    18 C    1.396    23 C    1.009
    14   6 C    3.977 --    13 C    1.415    15 C    1.364    78 H    0.963
    15   6 C    3.946 --    16 C    1.372    14 C    1.364    20 O    1.083
    16   6 C    3.975 --    17 C    1.388    15 C    1.372    79 H    0.961
    17   6 C    3.944 --    16 C    1.388    18 C    1.334    19 O    1.080
    18   6 C    3.972 --    13 C    1.396    17 C    1.334    21 C    0.974
    19   8 O    2.076 --    17 C    1.080    80 H    0.830
    20   8 O    2.078 --    15 C    1.083    81 H    0.835
    21   6 C    3.913 --    18 C    0.974    22 O    0.953    28 O    0.945
                            24 C    0.934
    22   8 O    2.048 --    23 C    0.959    21 C    0.953
    23   6 C    3.934 --    13 C    1.009    22 O    0.959    82 H    0.955
                            83 H    0.954
    24   6 C    3.956 --    44 O    0.997    25 C    0.968    84 H    0.956
                            21 C    0.934
    25   6 C    3.929 --    26 C    0.970    24 C    0.968    30 O    0.939
                            85 H    0.938
    26   6 C    3.939 --    25 C    0.970    29 O    0.963    27 C    0.958
                            86 H    0.949
    27   6 C    3.937 --    42 C    0.980    28 O    0.960    26 C    0.958
                            87 H    0.946
    28   8 O    2.062 --    27 C    0.960    21 C    0.945
    29   8 O    2.121 --    31 C    0.995    26 C    0.963
    30   8 O    2.285 --    45 C    1.099    25 C    0.939    53 O    0.144
    31   6 C    3.922 --    29 O    0.995    36 C    0.955    88 H    0.948
                            32 O    0.947
    32   8 O    2.053 --    33 C    0.953    31 C    0.947
    33   6 C    3.938 --    37 C    0.990    34 C    0.966    89 H    0.954
                            32 O    0.953
    34   6 C    3.956 --    39 O    0.999    33 C    0.966    35 C    0.961
                            90 H    0.956
    35   6 C    3.963 --    41 O    1.007    36 C    0.962    34 C    0.961
                            91 H    0.959
    36   6 C    3.961 --    40 O    0.996    35 C    0.962    31 C    0.955
                            92 H    0.943
    37   6 C    3.936 --    33 C    0.990    38 O    0.961    94 H    0.959
                            93 H    0.958
    38   8 O    2.264 --     1 C    1.077    37 C    0.961     3 O    0.147
    39   8 O    1.952 --    34 C    0.999    95 H    0.852
    40   8 O    1.915 --    36 C    0.996    96 H    0.836
    41   8 O    1.939 --    35 C    1.007    97 H    0.845
    42   6 C    3.957 --    43 O    1.011    27 C    0.980    99 H    0.966
                            98 H    0.964
    43   8 O    1.931 --    42 C    1.011   100 H    0.860
    44   8 O    1.918 --    24 C    0.997   101 H    0.831
    45   6 C    3.895 --    53 O    1.607    30 O    1.099    46 C    1.076
    46   6 C    3.977 --    47 C    1.756    45 C    1.076   102 H    0.950
    47   6 C    3.971 --    46 C    1.756    48 C    1.113   103 H    0.952
    48   6 C    3.987 --    49 C    1.827    47 C    1.113   104 H    0.944
    49   6 C    3.979 --    48 C    1.827    50 C    1.038   105 H    0.965
    50   6 C    3.985 --    49 C    1.038   106 H    0.968   107 H    0.962
                            51 C    0.941
    51   6 C    3.950 --    52 C    0.994    54 O    0.981   108 H    0.961
                            50 C    0.941
    52   6 C    3.974 --    55 C    1.774    56 C    1.035    51 C    0.994
                            58 C    0.120
    53   8 O    1.980 --    45 C    1.607    30 O    0.144
    54   8 O    1.914 --    51 C    0.981   109 H    0.859
    55   6 C    3.988 --    52 C    1.774    57 C    1.126   110 H    0.963
    56   6 C    3.994 --    52 C    1.035   113 H    0.976   112 H    0.975
                           111 H    0.954
    57   6 C    3.988 --    58 C    1.818    55 C    1.126   114 H    0.960
    58   6 C    3.983 --    57 C    1.818    59 C    1.032   115 H    0.966
                            52 C    0.120
    59   6 C    3.994 --    58 C    1.032    60 C    0.984   116 H    0.965
                           117 H    0.964
    60   6 C    3.987 --    61 C    0.992    59 C    0.984   118 H    0.975
                           119 H    0.970
    61   6 C    3.992 --    64 C    1.010    62 C    0.994    60 C    0.992
                           120 H    0.957
    62   6 C    3.997 --    63 C    1.022    61 C    0.994   122 H    0.974
                           121 H    0.974
    63   6 C    3.996 --    62 C    1.022   123 H    0.986   125 H    0.985
                           124 H    0.984
    64   6 C    3.995 --    61 C    1.010   126 H    0.985   128 H    0.985
                           127 H    0.974
    65   1 H    0.992 --     2 C    0.958
    66   1 H    0.995 --     4 C    0.954
    67   1 H    0.995 --     5 C    0.960
    68   1 H    0.995 --     6 C    0.962
    69   1 H    0.997 --     7 C    0.955
    70   1 H    0.996 --     8 C    0.962
    71   1 H    0.995 --     9 C    0.946
    72   1 H    0.998 --    10 C    0.975
    73   1 H    0.998 --    10 C    0.974
    74   1 H    0.998 --    11 C    0.986
    75   1 H    0.998 --    11 C    0.985
    76   1 H    0.999 --    11 C    0.987
    77   1 H    0.887 --    12 O    0.869
    78   1 H    0.995 --    14 C    0.963
    79   1 H    0.993 --    16 C    0.961
    80   1 H    0.848 --    19 O    0.830
    81   1 H    0.853 --    20 O    0.835
    82   1 H    0.994 --    23 C    0.955
    83   1 H    0.994 --    23 C    0.954
    84   1 H    0.997 --    24 C    0.956
    85   1 H    0.997 --    25 C    0.938
    86   1 H    0.993 --    26 C    0.949
    87   1 H    0.997 --    27 C    0.946
    88   1 H    0.997 --    31 C    0.948
    89   1 H    0.997 --    33 C    0.954
    90   1 H    0.995 --    34 C    0.956
    91   1 H    0.996 --    35 C    0.959
    92   1 H    0.999 --    36 C    0.943
    93   1 H    0.996 --    37 C    0.958
    94   1 H    0.993 --    37 C    0.959
    95   1 H    0.895 --    39 O    0.852
    96   1 H    0.856 --    40 O    0.836
    97   1 H    0.868 --    41 O    0.845
    98   1 H    0.994 --    42 C    0.964
    99   1 H    0.997 --    42 C    0.966
   100   1 H    0.875 --    43 O    0.860
   101   1 H    0.883 --    44 O    0.831
   102   1 H    0.993 --    46 C    0.950
   103   1 H    0.993 --    47 C    0.952
   104   1 H    0.996 --    48 C    0.944
   105   1 H    0.996 --    49 C    0.965
   106   1 H    0.994 --    50 C    0.968
   107   1 H    0.995 --    50 C    0.962
   108   1 H    0.999 --    51 C    0.961
   109   1 H    0.875 --    54 O    0.859
   110   1 H    1.000 --    55 C    0.963
   111   1 H    0.996 --    56 C    0.954
   112   1 H    0.997 --    56 C    0.975
   113   1 H    0.994 --    56 C    0.976
   114   1 H    0.998 --    57 C    0.960
   115   1 H    0.999 --    58 C    0.966
   116   1 H    0.997 --    59 C    0.965
   117   1 H    0.995 --    59 C    0.964
   118   1 H    0.999 --    60 C    0.975
   119   1 H    0.999 --    60 C    0.970
   120   1 H    0.997 --    61 C    0.957
   121   1 H    1.000 --    62 C    0.974
   122   1 H    0.999 --    62 C    0.974
   123   1 H    0.998 --    63 C    0.986
   124   1 H    0.999 --    63 C    0.984
   125   1 H    0.999 --    63 C    0.985
   126   1 H    0.999 --    64 C    0.985
   127   1 H    0.996 --    64 C    0.974
   128   1 H    0.999 --    64 C    0.985
 ---------------------------------------------------------------------------

Topologies differ in total number of bonds
Writing topology from bond orders to xtbtopo.mol

molecular dipole:
                 x           y           z       tot (Debye)
 q only:        1.774       0.713       1.046
   full:        1.566       1.126       0.872       5.380
molecular quadrupole (traceless):
                xx          xy          yy          xz          yz          zz
 q only:       78.716     -16.814     -36.436       3.404      16.204     -42.280
  q+dip:       76.203     -21.406     -37.230       4.773      19.120     -38.974
   full:       74.208     -21.237     -37.543       4.420      20.709     -36.665


           -------------------------------------------------
          | TOTAL ENERGY             -202.395931760671 Eh   |
          | GRADIENT NORM               0.120001804950 Eh/α |
          | HOMO-LUMO GAP               1.582285184999 eV   |
           -------------------------------------------------

------------------------------------------------------------------------
 * finished run on 2026/06/19 at 18:52:06.962     
------------------------------------------------------------------------
 total:
 * wall-time:     0 d,  0 h,  0 min,  0.248 sec
 *  cpu-time:     0 d,  0 h,  0 min,  3.758 sec
 * ratio c/w:    15.142 speedup
 SCF:
 * wall-time:     0 d,  0 h,  0 min,  0.199 sec
 *  cpu-time:     0 d,  0 h,  0 min,  3.133 sec
 * ratio c/w:    15.771 speedup

normal termination of xtb
