      -----------------------------------------------------------      
     |                   =====================                   |     
     |                           x T B                           |     
     |                   =====================                   |     
     |                         S. Grimme                         |     
     |          Mulliken Center for Theoretical Chemistry        |     
     |                    University of Bonn                     |     
      -----------------------------------------------------------      

   * xtb version 6.7.1 (edcfbbe) compiled by 'albert@albert-system' on 2024-07-22

   xtb is free software: you can redistribute it and/or modify it under
   the terms of the GNU Lesser General Public License as published by
   the Free Software Foundation, either version 3 of the License, or
   (at your option) any later version.
   
   xtb is distributed in the hope that it will be useful,
   but WITHOUT ANY WARRANTY; without even the implied warranty of
   MERCHANTABILITY or FITNESS FOR A PARTICULAR PURPOSE.  See the
   GNU Lesser General Public License for more details.
   
   Cite this work as:
   * C. Bannwarth, E. Caldeweyher, S. Ehlert, A. Hansen, P. Pracht,
     J. Seibert, S. Spicher, S. Grimme, WIREs Comput. Mol. Sci., 2020, 11,
     e01493. DOI: 10.1002/wcms.1493
   
   for GFN2-xTB:
   * C. Bannwarth, S. Ehlert and S. Grimme., J. Chem. Theory Comput., 2019,
     15, 1652-1671. DOI: 10.1021/acs.jctc.8b01176
   for GFN1-xTB:
   * S. Grimme, C. Bannwarth, P. Shushkov, J. Chem. Theory Comput., 2017,
     13, 1989-2009. DOI: 10.1021/acs.jctc.7b00118
   for GFN0-xTB:
   * P. Pracht, E. Caldeweyher, S. Ehlert, S. Grimme, ChemRxiv, 2019, preprint.
     DOI: 10.26434/chemrxiv.8326202.v1
   for GFN-FF:
   * S. Spicher and S. Grimme, Angew. Chem. Int. Ed., 2020, 59, 15665-15673.
     DOI: 10.1002/anie.202004239
   
   for ALPB and GBSA implicit solvation:
   * S. Ehlert, M. Stahn, S. Spicher, S. Grimme, J. Chem. Theory Comput.,
     2021, 17, 4250-4261. DOI: 10.1021/acs.jctc.1c00471
   
   for ddCOSMO and CPCM-X implicit solvation:
   * M. Stahn, S. Ehlert, S. Grimme, J. Phys. Chem. A,
     2023, XX, XXXX-XXXX. DOI: 10.1021/acs.jpca.3c04382
   
   for DFT-D4:
   * E. Caldeweyher, C. Bannwarth and S. Grimme, J. Chem. Phys., 2017,
     147, 034112. DOI: 10.1063/1.4993215
   * E. Caldeweyher, S. Ehlert, A. Hansen, H. Neugebauer, S. Spicher,
     C. Bannwarth and S. Grimme, J. Chem. Phys., 2019, 150, 154122.
     DOI: 10.1063/1.5090222
   * E. Caldeweyher, J.-M. Mewes, S. Ehlert and S. Grimme, Phys. Chem. Chem. Phys.
     2020, 22, 8499-8512. DOI: 10.1039/D0CP00502A
   
   for sTDA-xTB:
   * S. Grimme and C. Bannwarth, J. Chem. Phys., 2016, 145, 054103.
     DOI: 10.1063/1.4959605
   
   in the mass-spec context:
   * V. Asgeirsson, C. Bauer and S. Grimme, Chem. Sci., 2017, 8, 4879.
     DOI: 10.1039/c7sc00601b
   * J. Koopman and S. Grimme, ACS Omega 2019, 4, 12, 15120-15133.
     DOI: 10.1021/acsomega.9b02011
   
   for metadynamics refer to:
   * S. Grimme, J. Chem. Theory Comput., 2019, 155, 2847-2862
     DOI: 10.1021/acs.jctc.9b00143
   
   for SPH calculations refer to:
   * S. Spicher and S. Grimme, J. Chem. Theory Comput., 2021, 17, 1701-1714
     DOI: 10.1021/acs.jctc.0c01306
   
   for ONIOM refer to:
   * C. Plett, A. Katbashev, S. Ehlert, S. Grimme, M. Bursch,
     Phys. Chem. Chem. Phys., 2023, 25, 17860-17868. DOI: 10.1039/D3CP02178E
   
   for DIPRO refer to:
   * J. Kohn, N. Gildemeister, S. Grimme, D. Fazzi, A. Hansen,
     J. Chem. Phys., 2023, just accepted.
   
   for PTB refer to:
   * S. Grimme, M. Mueller, A. Hansen, J. Chem. Phys., 2023, 158, 124111.
     DOI: 10.1063/5.0137838
   
   with help from (in alphabetical order)
   P. Atkinson, C. Bannwarth, F. Bohle, G. Brandenburg, E. Caldeweyher
   M. Checinski, S. Dohm, S. Ehlert, S. Ehrlich, I. Gerasimov, C. Hölzer
   A. Katbashev, J. Kohn, J. Koopman, C. Lavigne, S. Lehtola, F. März, M. Müller,
   F. Musil, H. Neugebauer, J. Pisarek, C. Plett, P. Pracht, F. Pultar,
   J. Seibert, P. Shushkov, S. Spicher, M. Stahn, M. Steiner, T. Strunk,
   J. Stückrath, T. Rose, and J. Unsleber
   
 * started run on 2026/06/19 at 18:52:07.514     
   ID    Z sym.   atoms
    1    6 C      1, 2, 4-11, 13-18, 21, 23-27, 31, 33-37, 42, 45-52, 55-64
    2    8 O      3, 12, 19, 20, 22, 28-30, 32, 38-41, 43, 44, 53, 54
    3    1 H      65-128

           -------------------------------------------------
          |                Calculation Setup                |
           -------------------------------------------------

          program call               : xtb PAPU-0002/conf04.xyz --gfn 2 --alpb octanol --chrg 0 --uhf 0 --namespace PAPU-0002/conf04_octanol
          hostname                   : cpu10
          calculation namespace      : PAPU-0002/conf04_octanol
          coordinate file            : PAPU-0002/conf04.xyz
          omp threads                :                    16


           -------------------------------------------------
          |                 G F N 2 - x T B                 |
           -------------------------------------------------

        Reference                      10.1021/acs.jctc.8b01176
      * Hamiltonian:
        H0-scaling (s, p, d)           1.850000    2.230000    2.230000
        zeta-weighting                 0.500000
      * Dispersion:
        s8                             2.700000
        a1                             0.520000
        a2                             5.000000
        s9                             5.000000
      * Repulsion:
        kExp                           1.500000    1.000000
        rExp                           1.000000
      * Coulomb:
        alpha                          2.000000
        third order                    shell-resolved
        anisotropic                    true
        a3                             3.000000
        a5                             4.000000
        cn-shift                       1.200000
        cn-exp                         4.000000
        max-rad                        5.000000

      * Solvation model:               ALPB
        Solvent                        octanol
        Parameter file                 internal GFN2-xTB/ALPB
        Dielectric constant                9.8629E+00
        Reference state                gsolv [1 M gas/solution]
        Free energy shift                  2.3397E-03 Eh       1.4682E+00 kcal/mol
        Temperature                        2.9815E+02 K
        Density                            8.3000E-01 kg/L
        Solvent mass                       1.3023E+02 g/mol
        Interaction kernel             P16
        Born radius scaling (c1)           1.5898E+00
        Born radii integrator          GBOBC
        Born offset                        0.0000E+00 a0       0.0000E+00 AA
        H-bond correction              true
        Ion screening                  false
        Surface tension                    1.0000E-05 Eh       1.5569E+01 dyn/cm
        Grid points                               230 per atom

          ...................................................
          :                      SETUP                      :
          :.................................................:
          :  # basis functions                 320          :
          :  # atomic orbitals                 320          :
          :  # shells                          192          :
          :  # electrons                       354          :
          :  max. iterations                   250          :
          :  Hamiltonian                  GFN2-xTB          :
          :  restarted?                      false          :
          :  GBSA solvation                   true          :
          :  PC potential                    false          :
          :  electronic temp.          300.0000000     K    :
          :  accuracy                    1.0000000          :
          :  -> integral cutoff          0.2500000E+02      :
          :  -> integral neglect         0.1000000E-07      :
          :  -> SCF convergence          0.1000000E-05 Eh   :
          :  -> wf. convergence          0.1000000E-03 e    :
          :  Broyden damping             0.4000000          :
          :  net charge                          0          :
          :  unpaired electrons                  0          :
          ...................................................

 iter      E             dE          RMSdq      gap      omega  full diag
   1   -204.4533792 -0.204453E+03  0.433E+00    2.17       0.0  T
   2   -204.6716557 -0.218277E+00  0.238E+00    1.70       1.0  T
   3   -204.6552780  0.163778E-01  0.109E+00    1.62       1.0  T
   4   -204.6928149 -0.375370E-01  0.334E-01    1.47       1.0  T
   5   -204.6994532 -0.663826E-02  0.136E-01    1.46       1.0  T
   6   -204.7005046 -0.105141E-02  0.623E-02    1.47       1.0  T
   7   -204.7006061 -0.101467E-03  0.288E-02    1.48       1.0  T
   8   -204.7006345 -0.284820E-04  0.117E-02    1.48       1.0  T
   9   -204.7006407 -0.615131E-05  0.555E-03    1.48       1.6  T
  10   -204.7006420 -0.127012E-05  0.253E-03    1.48       3.5  T
  11   -204.7006421 -0.191753E-06  0.126E-03    1.48       7.0  T
  12   -204.7006422 -0.247585E-07  0.597E-04    1.48      14.8  T
  13   -204.7006422 -0.165001E-07  0.256E-04    1.48      34.5  T

   *** convergence criteria satisfied after 13 iterations ***

         #    Occupation            Energy/Eh            Energy/eV
      -------------------------------------------------------------
         1        2.0000           -0.7654376             -20.8286
       ...           ...                  ...                  ...
       171        2.0000           -0.4043665             -11.0034
       172        2.0000           -0.4015146             -10.9258
       173        2.0000           -0.4003890             -10.8951
       174        2.0000           -0.3950313             -10.7493
       175        2.0000           -0.3941567             -10.7255
       176        2.0000           -0.3912522             -10.6465
       177        2.0000           -0.3603724              -9.8062 (HOMO)
       178                         -0.3059076              -8.3242 (LUMO)
       179                         -0.3024343              -8.2297
       180                         -0.2424820              -6.5983
       181                         -0.2375249              -6.4634
       182                         -0.2366521              -6.4396
       ...                                ...                  ...
       320                          0.6931449              18.8614
      -------------------------------------------------------------
                  HL-Gap            0.0544648 Eh            1.4821 eV
             Fermi-level           -0.3331400 Eh           -9.0652 eV

 SCC (total)                   0 d,  0 h,  0 min,  0.202 sec
 SCC setup                      ...        0 min,  0.003 sec (  1.453%)
 Dispersion                     ...        0 min,  0.004 sec (  1.843%)
 classical contributions        ...        0 min,  0.000 sec (  0.093%)
 integral evaluation            ...        0 min,  0.011 sec (  5.495%)
 iterations                     ...        0 min,  0.154 sec ( 76.394%)
 molecular gradient             ...        0 min,  0.029 sec ( 14.384%)
 printout                       ...        0 min,  0.001 sec (  0.319%)

         :::::::::::::::::::::::::::::::::::::::::::::::::::::
         ::                     SUMMARY                     ::
         :::::::::::::::::::::::::::::::::::::::::::::::::::::
         :: total energy            -202.418370340986 Eh    ::
         :: total w/o Gsasa/hb      -202.350791907199 Eh    ::
         :: gradient norm              0.119175324793 Eh/a0 ::
         :: HOMO-LUMO gap              1.482062136044 eV    ::
         ::.................................................::
         :: SCC energy              -204.691792767001 Eh    ::
         :: -> isotropic ES            0.448410872553 Eh    ::
         :: -> anisotropic ES         -0.010214426121 Eh    ::
         :: -> anisotropic XC          0.029928904080 Eh    ::
         :: -> dispersion             -0.162455991949 Eh    ::
         :: -> Gsolv                  -0.099604625615 Eh    ::
         ::    -> Gelec               -0.032026191827 Eh    ::
         ::    -> Gsasa               -0.029473473023 Eh    ::
         ::    -> Ghb                 -0.040444630140 Eh    ::
         ::    -> Gshift               0.002339669376 Eh    ::
         :: repulsion energy           2.273422426014 Eh    ::
         :: add. restraining           0.000000000000 Eh    ::
         :: total charge              -0.000000000000 e     ::
         :::::::::::::::::::::::::::::::::::::::::::::::::::::

           -------------------------------------------------
          |                Property Printout                |
           -------------------------------------------------

    * Orbital Energies and Occupations

         #    Occupation            Energy/Eh            Energy/eV
      -------------------------------------------------------------
         1        2.0000           -0.7654376             -20.8286
       ...           ...                  ...                  ...
       165        2.0000           -0.4188458             -11.3974
       166        2.0000           -0.4156759             -11.3111
       167        2.0000           -0.4135468             -11.2532
       168        2.0000           -0.4120832             -11.2134
       169        2.0000           -0.4099305             -11.1548
       170        2.0000           -0.4051811             -11.0255
       171        2.0000           -0.4043665             -11.0034
       172        2.0000           -0.4015146             -10.9258
       173        2.0000           -0.4003890             -10.8951
       174        2.0000           -0.3950313             -10.7493
       175        2.0000           -0.3941567             -10.7255
       176        2.0000           -0.3912522             -10.6465
       177        2.0000           -0.3603724              -9.8062 (HOMO)
       178                         -0.3059076              -8.3242 (LUMO)
       179                         -0.3024343              -8.2297
       180                         -0.2424820              -6.5983
       181                         -0.2375249              -6.4634
       182                         -0.2366521              -6.4396
       183                         -0.2348239              -6.3899
       184                         -0.2259892              -6.1495
       185                         -0.1825289              -4.9669
       186                         -0.1768920              -4.8135
       187                         -0.1375521              -3.7430
       188                         -0.1328246              -3.6143
       ...                                ...                  ...
       320                          0.6931449              18.8614
      -------------------------------------------------------------
                  HL-Gap            0.0544648 Eh            1.4821 eV
             Fermi-level           -0.3331400 Eh           -9.0652 eV

     #   Z          covCN         q      C6AA      α(0)
     1   6 C        2.766     0.353    21.005     7.506
     2   6 C        2.897    -0.085    30.132     9.000
     3   8 O        0.858    -0.463    22.987     6.428
     4   6 C        2.898    -0.003    28.111     8.693
     5   6 C        2.900    -0.036    28.889     8.813
     6   6 C        2.900    -0.022    28.558     8.762
     7   6 C        2.894    -0.030    28.744     8.790
     8   6 C        2.896    -0.052    29.300     8.875
     9   6 C        3.729     0.111    18.853     6.199
    10   6 C        3.800    -0.070    21.832     6.653
    11   6 C        3.751    -0.110    22.669     6.790
    12   8 O        1.652    -0.482    22.506     6.404
    13   6 C        2.999     0.002    27.960     8.674
    14   6 C        2.920    -0.096    30.413     9.044
    15   6 C        2.839     0.154    24.664     8.139
    16   6 C        2.924    -0.104    30.614     9.074
    17   6 C        2.835     0.149    24.764     8.155
    18   6 C        3.022    -0.043    29.031     8.838
    19   8 O        1.657    -0.442    21.685     6.286
    20   8 O        1.657    -0.429    21.426     6.249
    21   6 C        3.737     0.261    16.679     5.828
    22   8 O        1.694    -0.370    20.271     6.079
    23   6 C        3.754     0.072    19.427     6.285
    24   6 C        3.721     0.095    19.112     6.244
    25   6 C        3.766     0.106    18.884     6.194
    26   6 C        3.733     0.091    19.166     6.248
    27   6 C        3.750     0.090    19.149     6.241
    28   8 O        1.695    -0.357    20.017     6.040
    29   8 O        1.697    -0.296    18.929     5.874
    30   8 O        1.702    -0.279    18.626     5.827
    31   6 C        3.622     0.236    17.322     5.999
    32   8 O        1.695    -0.359    20.061     6.047
    33   6 C        3.738     0.093    19.126     6.241
    34   6 C        3.721     0.075    19.428     6.295
    35   6 C        3.724     0.082    19.320     6.277
    36   6 C        3.721     0.085    19.270     6.269
    37   6 C        3.745     0.081    19.295     6.266
    38   8 O        1.703    -0.276    18.585     5.821
    39   8 O        1.651    -0.470    22.264     6.370
    40   8 O        1.653    -0.496    22.796     6.445
    41   8 O        1.653    -0.473    22.327     6.379
    42   6 C        3.676     0.067    19.676     6.355
    43   8 O        1.654    -0.476    22.377     6.386
    44   8 O        1.652    -0.499    22.868     6.455
    45   6 C        2.739     0.368    20.767     7.461
    46   6 C        2.897    -0.083    30.076     8.992
    47   6 C        2.901     0.002    27.990     8.675
    48   6 C        2.899    -0.035    28.872     8.810
    49   6 C        2.893    -0.028    28.708     8.785
    50   6 C        3.806    -0.079    22.000     6.677
    51   6 C        3.728     0.118    18.745     6.181
    52   6 C        2.941    -0.001    28.042     8.685
    53   8 O        0.858    -0.488    23.517     6.502
    54   8 O        1.652    -0.493    22.754     6.439
    55   6 C        2.903    -0.058    29.429     8.895
    56   6 C        3.757    -0.121    22.864     6.817
    57   6 C        2.894    -0.053    29.306     8.876
    58   6 C        2.895    -0.039    28.968     8.825
    59   6 C        3.806    -0.066    21.756     6.640
    60   6 C        3.802    -0.060    21.650     6.625
    61   6 C        3.847    -0.019    20.874     6.499
    62   6 C        3.800    -0.067    21.780     6.645
    63   6 C        3.750    -0.106    22.589     6.778
    64   6 C        3.752    -0.102    22.502     6.765
    65   1 H        0.926     0.086     1.918     2.166
    66   1 H        0.926     0.073     2.048     2.238
    67   1 H        0.926     0.064     2.152     2.294
    68   1 H        0.926     0.066     2.135     2.285
    69   1 H        0.926     0.054     2.274     2.358
    70   1 H        0.926     0.058     2.226     2.333
    71   1 H        0.923     0.047     2.356     2.400
    72   1 H        0.924     0.038     2.472     2.459
    73   1 H        0.924     0.039     2.468     2.457
    74   1 H        0.924     0.039     2.465     2.455
    75   1 H        0.924     0.049     2.330     2.387
    76   1 H        0.924     0.039     2.457     2.451
    77   1 H        0.804     0.330     0.638     1.254
    78   1 H        0.926     0.070     2.086     2.259
    79   1 H        0.926     0.082     1.960     2.189
    80   1 H        0.804     0.371     0.541     1.155
    81   1 H        0.804     0.364     0.558     1.173
    82   1 H        0.924     0.073     2.051     2.240
    83   1 H        0.924     0.072     2.063     2.246
    84   1 H        0.923     0.051     2.302     2.373
    85   1 H        0.924     0.048     2.342     2.393
    86   1 H        0.923     0.082     1.958     2.188
    87   1 H        0.924     0.058     2.220     2.330
    88   1 H        0.923     0.052     2.291     2.367
    89   1 H        0.923     0.052     2.291     2.367
    90   1 H        0.923     0.071     2.070     2.250
    91   1 H        0.923     0.062     2.180     2.309
    92   1 H        0.924     0.028     2.609     2.526
    93   1 H        0.924     0.064     2.157     2.297
    94   1 H        0.924     0.074     2.039     2.233
    95   1 H        0.802     0.326     0.647     1.264
    96   1 H        0.804     0.370     0.544     1.159
    97   1 H        0.803     0.354     0.579     1.196
    98   1 H        0.924     0.080     1.980     2.201
    99   1 H        0.924     0.050     2.318     2.381
   100   1 H        0.804     0.346     0.597     1.214
   101   1 H        0.803     0.344     0.604     1.221
   102   1 H        0.926     0.086     1.921     2.168
   103   1 H        0.926     0.079     1.990     2.206
   104   1 H        0.926     0.062     2.178     2.308
   105   1 H        0.926     0.061     2.188     2.313
   106   1 H        0.924     0.058     2.220     2.330
   107   1 H        0.924     0.069     2.101     2.267
   108   1 H        0.923     0.017     2.779     2.607
   109   1 H        0.804     0.335     0.625     1.242
   110   1 H        0.926     0.019     2.748     2.592
   111   1 H        0.924     0.069     2.092     2.262
   112   1 H        0.925     0.055     2.259     2.350
   113   1 H        0.924     0.053     2.281     2.362
   114   1 H        0.926     0.040     2.451     2.448
   115   1 H        0.926     0.028     2.615     2.529
   116   1 H        0.924     0.045     2.383     2.414
   117   1 H        0.924     0.069     2.099     2.266
   118   1 H        0.924     0.031     2.579     2.512
   119   1 H        0.924     0.017     2.779     2.607
   120   1 H        0.923     0.035     2.520     2.483
   121   1 H        0.924     0.023     2.695     2.567
   122   1 H        0.924     0.059     2.212     2.326
   123   1 H        0.924     0.032     2.551     2.498
   124   1 H        0.924     0.032     2.552     2.498
   125   1 H        0.924     0.033     2.547     2.496
   126   1 H        0.925     0.037     2.493     2.469
   127   1 H        0.924     0.031     2.568     2.506
   128   1 H        0.924     0.022     2.698     2.569

 Mol. C6AA /au·bohr⁶  :     156870.674695
 Mol. C8AA /au·bohr⁸  :    3571013.930840
 Mol. α(0) /au        :        597.665151


Wiberg/Mayer (AO) data.
largest (>0.10) Wiberg bond orders for each atom

 ---------------------------------------------------------------------------
     #   Z sym  total        # sym  WBO       # sym  WBO       # sym  WBO
 ---------------------------------------------------------------------------
     1   6 C    3.898 --     3 O    1.677    38 O    1.073     2 C    1.073
     2   6 C    3.940 --     4 C    1.713     1 C    1.073    65 H    0.958
                             6 C    0.106
     3   8 O    1.959 --     1 C    1.677    38 O    0.149
     4   6 C    3.980 --     2 C    1.713     5 C    1.175    66 H    0.953
     5   6 C    3.983 --     6 C    1.693     4 C    1.175    67 H    0.960
                             8 C    0.113
     6   6 C    3.966 --     5 C    1.693     7 C    1.154    68 H    0.962
                             2 C    0.106
     7   6 C    3.989 --     8 C    1.804     6 C    1.154    69 H    0.951
     8   6 C    3.933 --     7 C    1.804     9 C    1.002    70 H    0.962
                             5 C    0.113
     9   6 C    3.952 --     8 C    1.002    10 C    0.985    12 O    0.968
                            71 H    0.952
    10   6 C    3.995 --    11 C    1.022     9 C    0.985    72 H    0.975
                            73 H    0.974
    11   6 C    3.993 --    10 C    1.022    76 H    0.986    74 H    0.986
                            75 H    0.985
    12   8 O    1.945 --     9 C    0.968    77 H    0.873
    13   6 C    3.984 --    14 C    1.415    18 C    1.397    23 C    1.009
    14   6 C    3.977 --    13 C    1.415    15 C    1.365    78 H    0.963
    15   6 C    3.945 --    16 C    1.372    14 C    1.365    20 O    1.082
    16   6 C    3.975 --    17 C    1.389    15 C    1.372    79 H    0.961
    17   6 C    3.943 --    16 C    1.389    18 C    1.334    19 O    1.078
    18   6 C    3.973 --    13 C    1.397    17 C    1.334    21 C    0.975
    19   8 O    2.086 --    17 C    1.078    80 H    0.843
    20   8 O    2.091 --    15 C    1.082    81 H    0.850
    21   6 C    3.914 --    18 C    0.975    22 O    0.953    28 O    0.946
                            24 C    0.934
    22   8 O    2.050 --    23 C    0.961    21 C    0.953
    23   6 C    3.936 --    13 C    1.009    22 O    0.961    83 H    0.955
                            82 H    0.955
    24   6 C    3.957 --    44 O    0.997    25 C    0.968    84 H    0.956
                            21 C    0.934
    25   6 C    3.931 --    26 C    0.969    24 C    0.968    30 O    0.941
                            85 H    0.939
    26   6 C    3.940 --    25 C    0.969    29 O    0.967    27 C    0.958
                            86 H    0.948
    27   6 C    3.937 --    42 C    0.980    28 O    0.960    26 C    0.958
                            87 H    0.946
    28   8 O    2.063 --    27 C    0.960    21 C    0.946
    29   8 O    2.122 --    31 C    1.000    26 C    0.967
    30   8 O    2.286 --    45 C    1.098    25 C    0.941    53 O    0.144
    31   6 C    3.926 --    29 O    1.000    36 C    0.954    32 O    0.947
                            88 H    0.947
    32   8 O    2.059 --    33 C    0.957    31 C    0.947
    33   6 C    3.942 --    37 C    0.990    34 C    0.966    32 O    0.957
                            89 H    0.954
    34   6 C    3.957 --    39 O    1.001    33 C    0.966    35 C    0.961
                            90 H    0.956
    35   6 C    3.963 --    41 O    1.008    36 C    0.962    34 C    0.961
                            91 H    0.959
    36   6 C    3.962 --    40 O    0.996    35 C    0.962    31 C    0.954
                            92 H    0.944
    37   6 C    3.940 --    33 C    0.990    38 O    0.965    94 H    0.960
                            93 H    0.958
    38   8 O    2.264 --     1 C    1.073    37 C    0.965     3 O    0.149
    39   8 O    1.953 --    34 C    1.001    95 H    0.850
    40   8 O    1.923 --    36 C    0.996    96 H    0.843
    41   8 O    1.946 --    35 C    1.008    97 H    0.851
    42   6 C    3.956 --    43 O    1.011    27 C    0.980    99 H    0.966
                            98 H    0.964
    43   8 O    1.935 --    42 C    1.011   100 H    0.865
    44   8 O    1.917 --    24 C    0.997   101 H    0.830
    45   6 C    3.895 --    53 O    1.611    30 O    1.098    46 C    1.072
    46   6 C    3.976 --    47 C    1.757    45 C    1.072   102 H    0.947
    47   6 C    3.972 --    46 C    1.757    48 C    1.117   103 H    0.953
    48   6 C    3.987 --    49 C    1.822    47 C    1.117   104 H    0.946
    49   6 C    3.979 --    48 C    1.822    50 C    1.039   105 H    0.964
    50   6 C    3.985 --    49 C    1.039   106 H    0.968   107 H    0.963
                            51 C    0.940
    51   6 C    3.949 --    52 C    0.994    54 O    0.981   108 H    0.961
                            50 C    0.940
    52   6 C    3.975 --    55 C    1.771    56 C    1.034    51 C    0.994
                            58 C    0.122
    53   8 O    1.982 --    45 C    1.611    30 O    0.144
    54   8 O    1.926 --    51 C    0.981   109 H    0.871
    55   6 C    3.988 --    52 C    1.771    57 C    1.130   110 H    0.963
    56   6 C    3.994 --    52 C    1.034   111 H    0.977   113 H    0.974
                           112 H    0.956
    57   6 C    3.988 --    58 C    1.810    55 C    1.130   114 H    0.960
    58   6 C    3.983 --    57 C    1.810    59 C    1.035   115 H    0.964
                            52 C    0.122
    59   6 C    3.995 --    58 C    1.035    60 C    1.002   116 H    0.959
                           117 H    0.940
    60   6 C    3.993 --    59 C    1.002    61 C    0.993   119 H    0.976
                           118 H    0.969
    61   6 C    3.992 --    64 C    1.010    62 C    0.995    60 C    0.993
                           120 H    0.961
    62   6 C    3.994 --    63 C    1.021    61 C    0.995   121 H    0.977
                           122 H    0.965
    63   6 C    3.996 --    62 C    1.021   123 H    0.987   125 H    0.987
                           124 H    0.985
    64   6 C    3.997 --    61 C    1.010   127 H    0.985   128 H    0.984
                           126 H    0.979
    65   1 H    0.992 --     2 C    0.958
    66   1 H    0.995 --     4 C    0.953
    67   1 H    0.995 --     5 C    0.960
    68   1 H    0.995 --     6 C    0.962
    69   1 H    0.997 --     7 C    0.951
    70   1 H    0.996 --     8 C    0.962
    71   1 H    0.997 --     9 C    0.952
    72   1 H    0.998 --    10 C    0.975
    73   1 H    0.998 --    10 C    0.974
    74   1 H    0.998 --    11 C    0.986
    75   1 H    0.998 --    11 C    0.985
    76   1 H    0.998 --    11 C    0.986
    77   1 H    0.891 --    12 O    0.873
    78   1 H    0.995 --    14 C    0.963
    79   1 H    0.993 --    16 C    0.961
    80   1 H    0.862 --    19 O    0.843
    81   1 H    0.867 --    20 O    0.850
    82   1 H    0.994 --    23 C    0.955
    83   1 H    0.994 --    23 C    0.955
    84   1 H    0.997 --    24 C    0.956
    85   1 H    0.998 --    25 C    0.939
    86   1 H    0.993 --    26 C    0.948
    87   1 H    0.996 --    27 C    0.946
    88   1 H    0.997 --    31 C    0.947
    89   1 H    0.997 --    33 C    0.954
    90   1 H    0.995 --    34 C    0.956
    91   1 H    0.996 --    35 C    0.959
    92   1 H    0.999 --    36 C    0.944
    93   1 H    0.995 --    37 C    0.958
    94   1 H    0.993 --    37 C    0.960
    95   1 H    0.893 --    39 O    0.850
    96   1 H    0.863 --    40 O    0.843
    97   1 H    0.875 --    41 O    0.851
    98   1 H    0.993 --    42 C    0.964
    99   1 H    0.997 --    42 C    0.966
   100   1 H    0.880 --    43 O    0.865
   101   1 H    0.882 --    44 O    0.830
   102   1 H    0.993 --    46 C    0.947
   103   1 H    0.994 --    47 C    0.953
   104   1 H    0.996 --    48 C    0.946
   105   1 H    0.996 --    49 C    0.964
   106   1 H    0.994 --    50 C    0.968
   107   1 H    0.995 --    50 C    0.963
   108   1 H    0.999 --    51 C    0.961
   109   1 H    0.887 --    54 O    0.871
   110   1 H    1.000 --    55 C    0.963
   111   1 H    0.994 --    56 C    0.977
   112   1 H    0.996 --    56 C    0.956
   113   1 H    0.997 --    56 C    0.974
   114   1 H    0.998 --    57 C    0.960
   115   1 H    0.999 --    58 C    0.964
   116   1 H    0.998 --    59 C    0.959
   117   1 H    0.987 --    59 C    0.940
   118   1 H    0.999 --    60 C    0.969
   119   1 H    0.999 --    60 C    0.976
   120   1 H    0.998 --    61 C    0.961
   121   1 H    0.999 --    62 C    0.977
   122   1 H    0.996 --    62 C    0.965
   123   1 H    0.999 --    63 C    0.987
   124   1 H    0.999 --    63 C    0.985
   125   1 H    0.999 --    63 C    0.987
   126   1 H    0.999 --    64 C    0.979
   127   1 H    0.999 --    64 C    0.985
   128   1 H    0.999 --    64 C    0.984
 ---------------------------------------------------------------------------

Topologies differ in total number of bonds
Writing topology from bond orders to xtbtopo.mol

molecular dipole:
                 x           y           z       tot (Debye)
 q only:        1.750       0.457       1.146
   full:        1.516       0.896       0.940       5.073
molecular quadrupole (traceless):
                xx          xy          yy          xz          yz          zz
 q only:       70.812     -15.655     -32.190       2.652      15.393     -38.622
  q+dip:       70.226     -19.818     -33.995       4.696      19.214     -36.231
   full:       67.999     -19.875     -34.124       4.147      20.538     -33.875


           -------------------------------------------------
          | TOTAL ENERGY             -202.418370340986 Eh   |
          | GRADIENT NORM               0.119175324793 Eh/α |
          | HOMO-LUMO GAP               1.482062136044 eV   |
           -------------------------------------------------

------------------------------------------------------------------------
 * finished run on 2026/06/19 at 18:52:07.768     
------------------------------------------------------------------------
 total:
 * wall-time:     0 d,  0 h,  0 min,  0.254 sec
 *  cpu-time:     0 d,  0 h,  0 min,  3.840 sec
 * ratio c/w:    15.134 speedup
 SCF:
 * wall-time:     0 d,  0 h,  0 min,  0.203 sec
 *  cpu-time:     0 d,  0 h,  0 min,  3.176 sec
 * ratio c/w:    15.682 speedup

normal termination of xtb
