      -----------------------------------------------------------      
     |                   =====================                   |     
     |                           x T B                           |     
     |                   =====================                   |     
     |                         S. Grimme                         |     
     |          Mulliken Center for Theoretical Chemistry        |     
     |                    University of Bonn                     |     
      -----------------------------------------------------------      

   * xtb version 6.7.1 (edcfbbe) compiled by 'albert@albert-system' on 2024-07-22

   xtb is free software: you can redistribute it and/or modify it under
   the terms of the GNU Lesser General Public License as published by
   the Free Software Foundation, either version 3 of the License, or
   (at your option) any later version.
   
   xtb is distributed in the hope that it will be useful,
   but WITHOUT ANY WARRANTY; without even the implied warranty of
   MERCHANTABILITY or FITNESS FOR A PARTICULAR PURPOSE.  See the
   GNU Lesser General Public License for more details.
   
   Cite this work as:
   * C. Bannwarth, E. Caldeweyher, S. Ehlert, A. Hansen, P. Pracht,
     J. Seibert, S. Spicher, S. Grimme, WIREs Comput. Mol. Sci., 2020, 11,
     e01493. DOI: 10.1002/wcms.1493
   
   for GFN2-xTB:
   * C. Bannwarth, S. Ehlert and S. Grimme., J. Chem. Theory Comput., 2019,
     15, 1652-1671. DOI: 10.1021/acs.jctc.8b01176
   for GFN1-xTB:
   * S. Grimme, C. Bannwarth, P. Shushkov, J. Chem. Theory Comput., 2017,
     13, 1989-2009. DOI: 10.1021/acs.jctc.7b00118
   for GFN0-xTB:
   * P. Pracht, E. Caldeweyher, S. Ehlert, S. Grimme, ChemRxiv, 2019, preprint.
     DOI: 10.26434/chemrxiv.8326202.v1
   for GFN-FF:
   * S. Spicher and S. Grimme, Angew. Chem. Int. Ed., 2020, 59, 15665-15673.
     DOI: 10.1002/anie.202004239
   
   for ALPB and GBSA implicit solvation:
   * S. Ehlert, M. Stahn, S. Spicher, S. Grimme, J. Chem. Theory Comput.,
     2021, 17, 4250-4261. DOI: 10.1021/acs.jctc.1c00471
   
   for ddCOSMO and CPCM-X implicit solvation:
   * M. Stahn, S. Ehlert, S. Grimme, J. Phys. Chem. A,
     2023, XX, XXXX-XXXX. DOI: 10.1021/acs.jpca.3c04382
   
   for DFT-D4:
   * E. Caldeweyher, C. Bannwarth and S. Grimme, J. Chem. Phys., 2017,
     147, 034112. DOI: 10.1063/1.4993215
   * E. Caldeweyher, S. Ehlert, A. Hansen, H. Neugebauer, S. Spicher,
     C. Bannwarth and S. Grimme, J. Chem. Phys., 2019, 150, 154122.
     DOI: 10.1063/1.5090222
   * E. Caldeweyher, J.-M. Mewes, S. Ehlert and S. Grimme, Phys. Chem. Chem. Phys.
     2020, 22, 8499-8512. DOI: 10.1039/D0CP00502A
   
   for sTDA-xTB:
   * S. Grimme and C. Bannwarth, J. Chem. Phys., 2016, 145, 054103.
     DOI: 10.1063/1.4959605
   
   in the mass-spec context:
   * V. Asgeirsson, C. Bauer and S. Grimme, Chem. Sci., 2017, 8, 4879.
     DOI: 10.1039/c7sc00601b
   * J. Koopman and S. Grimme, ACS Omega 2019, 4, 12, 15120-15133.
     DOI: 10.1021/acsomega.9b02011
   
   for metadynamics refer to:
   * S. Grimme, J. Chem. Theory Comput., 2019, 155, 2847-2862
     DOI: 10.1021/acs.jctc.9b00143
   
   for SPH calculations refer to:
   * S. Spicher and S. Grimme, J. Chem. Theory Comput., 2021, 17, 1701-1714
     DOI: 10.1021/acs.jctc.0c01306
   
   for ONIOM refer to:
   * C. Plett, A. Katbashev, S. Ehlert, S. Grimme, M. Bursch,
     Phys. Chem. Chem. Phys., 2023, 25, 17860-17868. DOI: 10.1039/D3CP02178E
   
   for DIPRO refer to:
   * J. Kohn, N. Gildemeister, S. Grimme, D. Fazzi, A. Hansen,
     J. Chem. Phys., 2023, just accepted.
   
   for PTB refer to:
   * S. Grimme, M. Mueller, A. Hansen, J. Chem. Phys., 2023, 158, 124111.
     DOI: 10.1063/5.0137838
   
   with help from (in alphabetical order)
   P. Atkinson, C. Bannwarth, F. Bohle, G. Brandenburg, E. Caldeweyher
   M. Checinski, S. Dohm, S. Ehlert, S. Ehrlich, I. Gerasimov, C. Hölzer
   A. Katbashev, J. Kohn, J. Koopman, C. Lavigne, S. Lehtola, F. März, M. Müller,
   F. Musil, H. Neugebauer, J. Pisarek, C. Plett, P. Pracht, F. Pultar,
   J. Seibert, P. Shushkov, S. Spicher, M. Stahn, M. Steiner, T. Strunk,
   J. Stückrath, T. Rose, and J. Unsleber
   
 * started run on 2026/06/19 at 18:52:18.997     
   ID    Z sym.   atoms
    1    6 C      1-11, 13, 18, 20, 22-25, 29, 31, 33, 34, 36-41, 43-50,
                  53-57, 59, 64-72
    2    8 O      12, 14-17, 19, 21, 26-28, 30, 32, 35, 42, 51, 52, 58, 60-63
    3    1 H      73-150

           -------------------------------------------------
          |                Calculation Setup                |
           -------------------------------------------------

          program call               : xtb PAPU-0073/conf02.xyz --gfn 2 --alpb water --chrg 0 --uhf 0 --namespace PAPU-0073/conf02_water
          hostname                   : cpu10
          calculation namespace      : PAPU-0073/conf02_water
          coordinate file            : PAPU-0073/conf02.xyz
          omp threads                :                    16


           -------------------------------------------------
          |                 G F N 2 - x T B                 |
           -------------------------------------------------

        Reference                      10.1021/acs.jctc.8b01176
      * Hamiltonian:
        H0-scaling (s, p, d)           1.850000    2.230000    2.230000
        zeta-weighting                 0.500000
      * Dispersion:
        s8                             2.700000
        a1                             0.520000
        a2                             5.000000
        s9                             5.000000
      * Repulsion:
        kExp                           1.500000    1.000000
        rExp                           1.000000
      * Coulomb:
        alpha                          2.000000
        third order                    shell-resolved
        anisotropic                    true
        a3                             3.000000
        a5                             4.000000
        cn-shift                       1.200000
        cn-exp                         4.000000
        max-rad                        5.000000

      * Solvation model:               ALPB
        Solvent                        water
        Parameter file                 internal GFN2-xTB/ALPB
        Dielectric constant                8.0200E+01
        Reference state                gsolv [1 M gas/solution]
        Free energy shift                  1.0808E-03 Eh       6.7819E-01 kcal/mol
        Temperature                        2.9815E+02 K
        Density                            1.0000E+00 kg/L
        Solvent mass                       1.8000E+01 g/mol
        Interaction kernel             P16
        Born radius scaling (c1)           1.4744E+00
        Born radii integrator          GBOBC
        Born offset                        0.0000E+00 a0       0.0000E+00 AA
        H-bond correction              true
        Ion screening                  false
        Surface tension                    1.0000E-05 Eh       1.5569E+01 dyn/cm
        Grid points                               230 per atom

          ...................................................
          :                      SETUP                      :
          :.................................................:
          :  # basis functions                 366          :
          :  # atomic orbitals                 366          :
          :  # shells                          222          :
          :  # electrons                       408          :
          :  max. iterations                   250          :
          :  Hamiltonian                  GFN2-xTB          :
          :  restarted?                      false          :
          :  GBSA solvation                   true          :
          :  PC potential                    false          :
          :  electronic temp.          300.0000000     K    :
          :  accuracy                    1.0000000          :
          :  -> integral cutoff          0.2500000E+02      :
          :  -> integral neglect         0.1000000E-07      :
          :  -> SCF convergence          0.1000000E-05 Eh   :
          :  -> wf. convergence          0.1000000E-03 e    :
          :  Broyden damping             0.4000000          :
          :  net charge                          0          :
          :  unpaired electrons                  0          :
          ...................................................

 iter      E             dE          RMSdq      gap      omega  full diag
   1   -236.5761172 -0.236576E+03  0.427E+00    2.57       0.0  T
   2   -236.8351836 -0.259066E+00  0.232E+00    1.84       1.0  T
   3   -236.8275972  0.758633E-02  0.965E-01    1.74       1.0  T
   4   -236.8556344 -0.280372E-01  0.295E-01    1.48       1.0  T
   5   -236.8607197 -0.508530E-02  0.124E-01    1.48       1.0  T
   6   -236.8612573 -0.537555E-03  0.645E-02    1.48       1.0  T
   7   -236.8613705 -0.113238E-03  0.307E-02    1.49       1.0  T
   8   -236.8614138 -0.432781E-04  0.139E-02    1.48       1.0  T
   9   -236.8614217 -0.793442E-05  0.679E-03    1.48       1.2  T
  10   -236.8614232 -0.149828E-05  0.360E-03    1.47       2.3  T
  11   -236.8614236 -0.440541E-06  0.189E-03    1.47       4.3  T
  12   -236.8614239 -0.211768E-06  0.717E-04    1.47      11.4  T
  13   -236.8614239 -0.192957E-07  0.371E-04    1.47      22.0  T

   *** convergence criteria satisfied after 13 iterations ***

         #    Occupation            Energy/Eh            Energy/eV
      -------------------------------------------------------------
         1        2.0000           -0.7741149             -21.0647
       ...           ...                  ...                  ...
       198        2.0000           -0.4092301             -11.1357
       199        2.0000           -0.4090675             -11.1313
       200        2.0000           -0.4043822             -11.0038
       201        2.0000           -0.4038147             -10.9884
       202        2.0000           -0.3994971             -10.8709
       203        2.0000           -0.3864223             -10.5151
       204        2.0000           -0.3700115             -10.0685 (HOMO)
       205                         -0.3159367              -8.5971 (LUMO)
       206                         -0.2508054              -6.8248
       207                         -0.2443240              -6.6484
       208                         -0.2339265              -6.3655
       209                         -0.2314813              -6.2989
       ...                                ...                  ...
       366                          0.6863892              18.6776
      -------------------------------------------------------------
                  HL-Gap            0.0540748 Eh            1.4714 eV
             Fermi-level           -0.3429741 Eh           -9.3328 eV

 SCC (total)                   0 d,  0 h,  0 min,  0.265 sec
 SCC setup                      ...        0 min,  0.004 sec (  1.504%)
 Dispersion                     ...        0 min,  0.005 sec (  1.741%)
 classical contributions        ...        0 min,  0.000 sec (  0.094%)
 integral evaluation            ...        0 min,  0.014 sec (  5.160%)
 iterations                     ...        0 min,  0.202 sec ( 76.251%)
 molecular gradient             ...        0 min,  0.040 sec ( 14.926%)
 printout                       ...        0 min,  0.001 sec (  0.308%)

         :::::::::::::::::::::::::::::::::::::::::::::::::::::
         ::                     SUMMARY                     ::
         :::::::::::::::::::::::::::::::::::::::::::::::::::::
         :: total energy            -234.431138684188 Eh    ::
         :: total w/o Gsasa/hb      -234.397275698950 Eh    ::
         :: gradient norm              0.124203314728 Eh/a0 ::
         :: HOMO-LUMO gap              1.471449524182 eV    ::
         ::.................................................::
         :: SCC energy              -236.846562618206 Eh    ::
         :: -> isotropic ES            0.549854359794 Eh    ::
         :: -> anisotropic ES         -0.016765641204 Eh    ::
         :: -> anisotropic XC          0.020685891459 Eh    ::
         :: -> dispersion             -0.189690335720 Eh    ::
         :: -> Gsolv                  -0.088027802161 Eh    ::
         ::    -> Gelec               -0.054164816923 Eh    ::
         ::    -> Gsasa                0.005937767899 Eh    ::
         ::    -> Ghb                 -0.040881512835 Eh    ::
         ::    -> Gshift               0.001080759698 Eh    ::
         :: repulsion energy           2.415423934018 Eh    ::
         :: add. restraining           0.000000000000 Eh    ::
         :: total charge               0.000000000000 e     ::
         :::::::::::::::::::::::::::::::::::::::::::::::::::::

           -------------------------------------------------
          |                Property Printout                |
           -------------------------------------------------

    * Orbital Energies and Occupations

         #    Occupation            Energy/Eh            Energy/eV
      -------------------------------------------------------------
         1        2.0000           -0.7741149             -21.0647
       ...           ...                  ...                  ...
       192        2.0000           -0.4175384             -11.3618
       193        2.0000           -0.4166316             -11.3371
       194        2.0000           -0.4160685             -11.3218
       195        2.0000           -0.4137282             -11.2581
       196        2.0000           -0.4120201             -11.2116
       197        2.0000           -0.4103938             -11.1674
       198        2.0000           -0.4092301             -11.1357
       199        2.0000           -0.4090675             -11.1313
       200        2.0000           -0.4043822             -11.0038
       201        2.0000           -0.4038147             -10.9884
       202        2.0000           -0.3994971             -10.8709
       203        2.0000           -0.3864223             -10.5151
       204        2.0000           -0.3700115             -10.0685 (HOMO)
       205                         -0.3159367              -8.5971 (LUMO)
       206                         -0.2508054              -6.8248
       207                         -0.2443240              -6.6484
       208                         -0.2339265              -6.3655
       209                         -0.2314813              -6.2989
       210                         -0.2257808              -6.1438
       211                         -0.1635710              -4.4510
       212                         -0.1421530              -3.8682
       213                         -0.1095031              -2.9797
       214                         -0.0878918              -2.3917
       215                         -0.0785278              -2.1369
       ...                                ...                  ...
       366                          0.6863892              18.6776
      -------------------------------------------------------------
                  HL-Gap            0.0540748 Eh            1.4714 eV
             Fermi-level           -0.3429741 Eh           -9.3328 eV

     #   Z          covCN         q      C6AA      α(0)
     1   6 C        2.839     0.143    24.889     8.176
     2   6 C        2.975    -0.033    28.806     8.804
     3   6 C        2.964    -0.004    28.118     8.698
     4   6 C        2.927    -0.089    30.221     9.015
     5   6 C        2.836     0.147    24.807     8.162
     6   6 C        2.922    -0.099    30.504     9.057
     7   6 C        3.750     0.109    18.851     6.192
     8   6 C        3.722     0.100    19.037     6.231
     9   6 C        3.750     0.105    18.909     6.202
    10   6 C        3.745     0.100    19.004     6.219
    11   6 C        3.742     0.084    19.252     6.260
    12   8 O        1.696    -0.343    19.769     6.003
    13   6 C        3.681     0.079    19.461     6.318
    14   8 O        1.651    -0.493    22.753     6.439
    15   8 O        1.651    -0.495    22.781     6.443
    16   8 O        1.698    -0.326    19.454     5.955
    17   8 O        1.702    -0.288    18.787     5.852
    18   6 C        3.677     0.072    19.594     6.342
    19   8 O        1.654    -0.484    22.553     6.411
    20   6 C        3.632     0.245    17.148     5.961
    21   8 O        1.695    -0.365    20.163     6.062
    22   6 C        3.739     0.107    18.900     6.203
    23   6 C        3.724     0.100    19.032     6.230
    24   6 C        3.722     0.088    19.222     6.261
    25   6 C        3.745     0.089    19.179     6.247
    26   8 O        1.654    -0.491    22.695     6.431
    27   8 O        1.698    -0.325    19.434     5.952
    28   8 O        1.653    -0.498    22.853     6.453
    29   6 C        3.746     0.087    19.207     6.251
    30   8 O        1.704    -0.264    18.369     5.787
    31   6 C        2.759     0.369    20.743     7.458
    32   8 O        0.857    -0.455    22.804     6.402
    33   6 C        2.724     0.352    21.015     7.505
    34   6 C        2.896    -0.085    30.133     9.000
    35   8 O        0.858    -0.482    23.384     6.483
    36   6 C        2.901     0.004    27.931     8.666
    37   6 C        2.896    -0.049    29.227     8.864
    38   6 C        2.894    -0.008    28.217     8.709
    39   6 C        3.803    -0.081    22.038     6.683
    40   6 C        3.725     0.115    18.802     6.192
    41   6 C        2.894    -0.068    29.685     8.933
    42   8 O        1.651    -0.509    23.081     6.485
    43   6 C        2.895    -0.045    29.120     8.848
    44   6 C        2.897    -0.050    29.245     8.867
    45   6 C        2.894    -0.041    29.018     8.832
    46   6 C        3.805    -0.061    21.673     6.628
    47   6 C        3.801    -0.058    21.623     6.621
    48   6 C        3.801    -0.060    21.655     6.625
    49   6 C        3.799    -0.054    21.546     6.609
    50   6 C        3.751    -0.106    22.586     6.778
    51   8 O        1.656    -0.449    21.817     6.305
    52   8 O        1.657    -0.450    21.848     6.310
    53   6 C        3.639     0.237    17.232     5.970
    54   6 C        3.724     0.092    19.157     6.250
    55   6 C        3.725     0.101    19.018     6.227
    56   6 C        3.722     0.090    19.186     6.255
    57   6 C        3.739     0.104    18.952     6.212
    58   8 O        1.695    -0.372    20.302     6.083
    59   6 C        3.674     0.073    19.585     6.342
    60   8 O        1.653    -0.497    22.831     6.450
    61   8 O        1.653    -0.478    22.425     6.393
    62   8 O        1.653    -0.475    22.361     6.383
    63   8 O        1.653    -0.472    22.297     6.374
    64   6 C        3.803    -0.098    22.368     6.733
    65   6 C        3.751    -0.104    22.545     6.772
    66   6 C        3.800    -0.061    21.674     6.629
    67   6 C        3.801    -0.059    21.640     6.623
    68   6 C        3.801    -0.059    21.635     6.622
    69   6 C        3.800    -0.060    21.663     6.627
    70   6 C        3.801    -0.059    21.644     6.624
    71   6 C        3.800    -0.060    21.654     6.625
    72   6 C        3.800    -0.066    21.770     6.643
    73   1 H        0.926     0.063     2.162     2.300
    74   1 H        0.926     0.075     2.034     2.230
    75   1 H        0.924     0.031     2.568     2.506
    76   1 H        0.923     0.059     2.214     2.327
    77   1 H        0.924     0.041     2.434     2.440
    78   1 H        0.923     0.093     1.846     2.125
    79   1 H        0.924     0.056     2.247     2.344
    80   1 H        0.924     0.056     2.251     2.346
    81   1 H        0.924     0.025     2.659     2.550
    82   1 H        0.801     0.319     0.668     1.284
    83   1 H        0.802     0.336     0.623     1.240
    84   1 H        0.924     0.067     2.123     2.279
    85   1 H        0.924     0.052     2.299     2.371
    86   1 H        0.803     0.352     0.583     1.200
    87   1 H        0.924     0.013     2.841     2.636
    88   1 H        0.923     0.052     2.290     2.366
    89   1 H        0.923     0.052     2.294     2.369
    90   1 H        0.923     0.059     2.207     2.323
    91   1 H        0.924     0.092     1.862     2.134
    92   1 H        0.804     0.370     0.544     1.159
    93   1 H        0.803     0.376     0.532     1.146
    94   1 H        0.924     0.078     2.005     2.214
    95   1 H        0.924     0.061     2.193     2.316
    96   1 H        0.926     0.079     1.992     2.207
    97   1 H        0.926     0.076     2.016     2.220
    98   1 H        0.926     0.079     1.989     2.206
    99   1 H        0.926     0.058     2.227     2.334
   100   1 H        0.924     0.088     1.899     2.155
   101   1 H        0.924     0.076     2.016     2.221
   102   1 H        0.923     0.052     2.301     2.372
   103   1 H        0.926     0.058     2.217     2.329
   104   1 H        0.803     0.332     0.633     1.250
   105   1 H        0.926     0.036     2.501     2.473
   106   1 H        0.926     0.031     2.570     2.507
   107   1 H        0.926     0.053     2.277     2.360
   108   1 H        0.924     0.048     2.349     2.397
   109   1 H        0.924     0.037     2.493     2.469
   110   1 H        0.924     0.032     2.558     2.501
   111   1 H        0.924     0.034     2.536     2.490
   112   1 H        0.924     0.020     2.733     2.585
   113   1 H        0.924     0.029     2.605     2.524
   114   1 H        0.924     0.027     2.627     2.534
   115   1 H        0.924     0.035     2.514     2.479
   116   1 H        0.924     0.033     2.548     2.496
   117   1 H        0.924     0.039     2.468     2.457
   118   1 H        0.924     0.028     2.609     2.526
   119   1 H        0.804     0.382     0.519     1.132
   120   1 H        0.804     0.379     0.524     1.137
   121   1 H        0.923     0.013     2.844     2.637
   122   1 H        0.923     0.058     2.222     2.331
   123   1 H        0.923     0.039     2.462     2.454
   124   1 H        0.923     0.050     2.321     2.383
   125   1 H        0.924     0.017     2.775     2.605
   126   1 H        0.924     0.057     2.229     2.335
   127   1 H        0.924     0.082     1.957     2.188
   128   1 H        0.803     0.379     0.526     1.139
   129   1 H        0.803     0.371     0.542     1.156
   130   1 H        0.804     0.362     0.560     1.176
   131   1 H        0.802     0.317     0.673     1.289
   132   1 H        0.924     0.078     2.001     2.212
   133   1 H        0.924     0.094     1.841     2.122
   134   1 H        0.924     0.036     2.501     2.473
   135   1 H        0.924     0.031     2.571     2.507
   136   1 H        0.924     0.032     2.556     2.500
   137   1 H        0.924     0.034     2.533     2.489
   138   1 H        0.924     0.035     2.510     2.478
   139   1 H        0.924     0.028     2.611     2.527
   140   1 H        0.924     0.030     2.580     2.512
   141   1 H        0.924     0.025     2.659     2.550
   142   1 H        0.924     0.028     2.611     2.527
   143   1 H        0.924     0.033     2.544     2.494
   144   1 H        0.924     0.032     2.560     2.502
   145   1 H        0.924     0.064     2.148     2.292
   146   1 H        0.924     0.051     2.302     2.373
   147   1 H        0.924     0.021     2.723     2.581
   148   1 H        0.924     0.043     2.408     2.427
   149   1 H        0.924     0.040     2.448     2.447
   150   1 H        0.924     0.036     2.504     2.475

 Mol. C6AA /au·bohr⁶  :     200429.287430
 Mol. C8AA /au·bohr⁸  :    4463461.695477
 Mol. α(0) /au        :        666.004861


Wiberg/Mayer (AO) data.
largest (>0.10) Wiberg bond orders for each atom

 ---------------------------------------------------------------------------
     #   Z sym  total        # sym  WBO       # sym  WBO       # sym  WBO
 ---------------------------------------------------------------------------
     1   6 C    3.945 --     6 C    1.390     2 C    1.333    51 O    1.078
     2   6 C    3.976 --     3 C    1.392     1 C    1.333     7 C    0.993
     3   6 C    3.986 --     4 C    1.424     2 C    1.392    13 C    1.003
     4   6 C    3.981 --     3 C    1.424     5 C    1.363    73 H    0.962
     5   6 C    3.945 --     6 C    1.377     4 C    1.363    52 O    1.078
     6   6 C    3.978 --     1 C    1.390     5 C    1.377    74 H    0.961
     7   6 C    3.945 --     2 C    0.993    12 O    0.955     8 C    0.952
                            75 H    0.950
     8   6 C    3.949 --    15 O    0.986     9 C    0.969    76 H    0.955
                             7 C    0.952
     9   6 C    3.929 --     8 C    0.969    10 C    0.969    77 H    0.949
                            17 O    0.936
    10   6 C    3.931 --     9 C    0.969    16 O    0.960    11 C    0.958
                            78 H    0.946
    11   6 C    3.943 --    18 C    0.983    12 O    0.968    10 C    0.958
                            79 H    0.942
    12   8 O    2.059 --    11 C    0.968     7 C    0.955
    13   6 C    3.956 --     3 C    1.003    14 O    0.986    80 H    0.969
                            81 H    0.955
    14   8 O    1.923 --    13 C    0.986    82 H    0.849
    15   8 O    1.945 --     8 C    0.986    83 H    0.828
    16   8 O    2.089 --    20 C    0.982    10 C    0.960
    17   8 O    2.283 --    33 C    1.090     9 C    0.936    35 O    0.143
    18   6 C    3.959 --    19 O    1.010    11 C    0.983    84 H    0.967
                            85 H    0.966
    19   8 O    1.926 --    18 C    1.010    86 H    0.855
    20   6 C    3.922 --    16 O    0.982    25 C    0.954    21 O    0.953
                            87 H    0.940
    21   8 O    2.057 --    20 C    0.953    22 C    0.948
    22   6 C    3.938 --    29 C    0.986    23 C    0.971    88 H    0.953
                            21 O    0.948
    23   6 C    3.965 --    28 O    1.004    22 C    0.971    24 C    0.968
                            89 H    0.956
    24   6 C    3.959 --    26 O    0.999    23 C    0.968    25 C    0.962
                            90 H    0.948
    25   6 C    3.937 --    27 O    0.966    24 C    0.962    20 C    0.954
                            91 H    0.953
    26   8 O    1.926 --    24 C    0.999    92 H    0.846
    27   8 O    2.083 --    53 C    0.978    25 C    0.966
    28   8 O    1.913 --    23 C    1.004    93 H    0.836
    29   6 C    3.933 --    22 C    0.986    95 H    0.963    94 H    0.962
                            30 O    0.960
    30   8 O    2.295 --    31 C    1.108    29 C    0.960    32 O    0.162
    31   6 C    3.891 --    32 O    1.732    30 O    1.108    64 C    0.986
    32   8 O    2.003 --    31 C    1.732    30 O    0.162
    33   6 C    3.897 --    35 O    1.600    17 O    1.090    34 C    1.088
    34   6 C    3.974 --    36 C    1.704    33 C    1.088    96 H    0.953
    35   8 O    1.994 --    33 C    1.600    17 O    0.143
    36   6 C    3.970 --    34 C    1.704    37 C    1.154    97 H    0.957
    37   6 C    3.984 --    38 C    1.774    36 C    1.154    98 H    0.957
    38   6 C    3.979 --    37 C    1.774    39 C    1.052    99 H    0.951
    39   6 C    3.989 --    38 C    1.052   101 H    0.965    40 C    0.950
                           100 H    0.932
    40   6 C    3.950 --    41 C    1.011    42 O    0.986   102 H    0.951
                            39 C    0.950
    41   6 C    3.986 --    43 C    1.832    40 C    1.011   103 H    0.948
                            45 C    0.125
    42   8 O    1.921 --    40 C    0.986   104 H    0.849
    43   6 C    3.990 --    41 C    1.832    44 C    1.117   105 H    0.967
    44   6 C    3.990 --    45 C    1.829    43 C    1.117   106 H    0.966
    45   6 C    3.988 --    44 C    1.829    46 C    1.033   107 H    0.952
                            41 C    0.125
    46   6 C    3.996 --    45 C    1.033    47 C    0.990   109 H    0.972
                           108 H    0.958
    47   6 C    3.995 --    48 C    1.007    46 C    0.990   110 H    0.976
                           111 H    0.972
    48   6 C    3.996 --    49 C    1.008    47 C    1.007   112 H    0.970
                           113 H    0.964
    49   6 C    3.997 --    50 C    1.021    48 C    1.008   114 H    0.977
                           115 H    0.974
    50   6 C    3.996 --    49 C    1.021   117 H    0.986   116 H    0.986
                           118 H    0.982
    51   8 O    2.078 --     1 C    1.078   119 H    0.835
    52   8 O    2.074 --     5 C    1.078   120 H    0.838
    53   6 C    3.918 --    27 O    0.978    54 C    0.954    58 O    0.951
                           121 H    0.946
    54   6 C    3.960 --    62 O    1.001    55 C    0.975   122 H    0.956
                            53 C    0.954
    55   6 C    3.963 --    61 O    0.995    54 C    0.975    56 C    0.966
                           123 H    0.951
    56   6 C    3.966 --    60 O    1.007    57 C    0.966    55 C    0.966
                           124 H    0.956
    57   6 C    3.935 --    59 C    0.982    56 C    0.966   125 H    0.946
                            58 O    0.945
    58   8 O    2.057 --    53 C    0.951    57 C    0.945
    59   6 C    3.951 --    63 O    1.005    57 C    0.982   127 H    0.966
                           126 H    0.963
    60   8 O    1.914 --    56 C    1.007   128 H    0.834
    61   8 O    1.954 --    55 C    0.995   129 H    0.839
    62   8 O    1.943 --    54 C    1.001   130 H    0.850
    63   8 O    1.945 --    59 C    1.005   131 H    0.853
    64   6 C    3.984 --    31 C    0.986    70 C    0.980   132 H    0.971
                           133 H    0.951
    65   6 C    3.997 --    66 C    1.021   134 H    0.987   135 H    0.987
                           136 H    0.987
    66   6 C    3.995 --    65 C    1.021    67 C    1.008   137 H    0.975
                           138 H    0.966
    67   6 C    3.997 --    66 C    1.008    68 C    1.007   139 H    0.977
                           140 H    0.976
    68   6 C    3.996 --    69 C    1.008    67 C    1.007   141 H    0.975
                           142 H    0.973
    69   6 C    3.997 --    68 C    1.008    72 C    1.007   144 H    0.977
                           143 H    0.976
    70   6 C    3.989 --    71 C    1.007    64 C    0.980   146 H    0.976
                           145 H    0.972
    71   6 C    3.996 --    72 C    1.008    70 C    1.007   148 H    0.975
                           147 H    0.972
    72   6 C    3.996 --    71 C    1.008    69 C    1.007   149 H    0.976
                           150 H    0.973
    73   1 H    0.996 --     4 C    0.962
    74   1 H    0.994 --     6 C    0.961
    75   1 H    0.999 --     7 C    0.950
    76   1 H    0.996 --     8 C    0.955
    77   1 H    0.998 --     9 C    0.949
    78   1 H    0.991 --    10 C    0.946
    79   1 H    0.997 --    11 C    0.942
    80   1 H    0.997 --    13 C    0.969
    81   1 H    0.999 --    13 C    0.955
    82   1 H    0.898 --    14 O    0.849
    83   1 H    0.887 --    15 O    0.828
    84   1 H    0.995 --    18 C    0.967
    85   1 H    0.997 --    18 C    0.966
    86   1 H    0.876 --    19 O    0.855
    87   1 H    1.000 --    20 C    0.940
    88   1 H    0.997 --    22 C    0.953
    89   1 H    0.997 --    23 C    0.956
    90   1 H    0.996 --    24 C    0.948
    91   1 H    0.991 --    25 C    0.953
    92   1 H    0.863 --    26 O    0.846
    93   1 H    0.859 --    28 O    0.836
    94   1 H    0.994 --    29 C    0.962
    95   1 H    0.996 --    29 C    0.963
    96   1 H    0.994 --    34 C    0.953
    97   1 H    0.993 --    36 C    0.957
    98   1 H    0.993 --    37 C    0.957
    99   1 H    0.997 --    38 C    0.951
   100   1 H    0.988 --    39 C    0.932
   101   1 H    0.993 --    39 C    0.965
   102   1 H    0.996 --    40 C    0.951
   103   1 H    0.997 --    41 C    0.948
   104   1 H    0.890 --    42 O    0.849
   105   1 H    0.998 --    43 C    0.967
   106   1 H    0.999 --    44 C    0.966
   107   1 H    0.997 --    45 C    0.952
   108   1 H    0.997 --    46 C    0.958
   109   1 H    0.998 --    46 C    0.972
   110   1 H    0.998 --    47 C    0.976
   111   1 H    0.999 --    47 C    0.972
   112   1 H    1.000 --    48 C    0.970
   113   1 H    0.999 --    48 C    0.964
   114   1 H    0.999 --    49 C    0.977
   115   1 H    0.999 --    49 C    0.974
   116   1 H    0.999 --    50 C    0.986
   117   1 H    0.998 --    50 C    0.986
   118   1 H    0.999 --    50 C    0.982
   119   1 H    0.854 --    51 O    0.835
   120   1 H    0.855 --    52 O    0.838
   121   1 H    1.000 --    53 C    0.946
   122   1 H    0.996 --    54 C    0.956
   123   1 H    0.998 --    55 C    0.951
   124   1 H    0.997 --    56 C    0.956
   125   1 H    1.000 --    57 C    0.946
   126   1 H    0.996 --    59 C    0.963
   127   1 H    0.993 --    59 C    0.966
   128   1 H    0.857 --    60 O    0.834
   129   1 H    0.862 --    61 O    0.839
   130   1 H    0.868 --    62 O    0.850
   131   1 H    0.900 --    63 O    0.853
   132   1 H    0.994 --    64 C    0.971
   133   1 H    0.991 --    64 C    0.951
   134   1 H    0.999 --    65 C    0.987
   135   1 H    0.999 --    65 C    0.987
   136   1 H    0.999 --    65 C    0.987
   137   1 H    0.999 --    66 C    0.975
   138   1 H    0.999 --    66 C    0.966
   139   1 H    0.999 --    67 C    0.977
   140   1 H    0.999 --    67 C    0.976
   141   1 H    0.999 --    68 C    0.975
   142   1 H    0.999 --    68 C    0.973
   143   1 H    0.999 --    69 C    0.976
   144   1 H    0.999 --    69 C    0.977
   145   1 H    0.995 --    70 C    0.972
   146   1 H    0.997 --    70 C    0.976
   147   1 H    1.000 --    71 C    0.972
   148   1 H    0.998 --    71 C    0.975
   149   1 H    0.998 --    72 C    0.976
   150   1 H    0.999 --    72 C    0.973
 ---------------------------------------------------------------------------

Topologies differ in total number of bonds
Writing topology from bond orders to xtbtopo.mol

molecular dipole:
                 x           y           z       tot (Debye)
 q only:        3.037       0.028       0.782
   full:        3.223      -0.227       0.703       8.403
molecular quadrupole (traceless):
                xx          xy          yy          xz          yz          zz
 q only:       11.308       7.257       9.342     -13.875     -19.345     -20.651
  q+dip:        3.245       6.529      13.062     -18.980     -26.130     -16.306
   full:        4.254       8.033      11.296     -19.357     -27.721     -15.550


           -------------------------------------------------
          | TOTAL ENERGY             -234.431138684188 Eh   |
          | GRADIENT NORM               0.124203314728 Eh/α |
          | HOMO-LUMO GAP               1.471449524182 eV   |
           -------------------------------------------------

------------------------------------------------------------------------
 * finished run on 2026/06/19 at 18:52:19.319     
------------------------------------------------------------------------
 total:
 * wall-time:     0 d,  0 h,  0 min,  0.322 sec
 *  cpu-time:     0 d,  0 h,  0 min,  4.760 sec
 * ratio c/w:    14.790 speedup
 SCF:
 * wall-time:     0 d,  0 h,  0 min,  0.266 sec
 *  cpu-time:     0 d,  0 h,  0 min,  4.120 sec
 * ratio c/w:    15.480 speedup

normal termination of xtb
