      -----------------------------------------------------------      
     |                   =====================                   |     
     |                           x T B                           |     
     |                   =====================                   |     
     |                         S. Grimme                         |     
     |          Mulliken Center for Theoretical Chemistry        |     
     |                    University of Bonn                     |     
      -----------------------------------------------------------      

   * xtb version 6.7.1 (edcfbbe) compiled by 'albert@albert-system' on 2024-07-22

   xtb is free software: you can redistribute it and/or modify it under
   the terms of the GNU Lesser General Public License as published by
   the Free Software Foundation, either version 3 of the License, or
   (at your option) any later version.
   
   xtb is distributed in the hope that it will be useful,
   but WITHOUT ANY WARRANTY; without even the implied warranty of
   MERCHANTABILITY or FITNESS FOR A PARTICULAR PURPOSE.  See the
   GNU Lesser General Public License for more details.
   
   Cite this work as:
   * C. Bannwarth, E. Caldeweyher, S. Ehlert, A. Hansen, P. Pracht,
     J. Seibert, S. Spicher, S. Grimme, WIREs Comput. Mol. Sci., 2020, 11,
     e01493. DOI: 10.1002/wcms.1493
   
   for GFN2-xTB:
   * C. Bannwarth, S. Ehlert and S. Grimme., J. Chem. Theory Comput., 2019,
     15, 1652-1671. DOI: 10.1021/acs.jctc.8b01176
   for GFN1-xTB:
   * S. Grimme, C. Bannwarth, P. Shushkov, J. Chem. Theory Comput., 2017,
     13, 1989-2009. DOI: 10.1021/acs.jctc.7b00118
   for GFN0-xTB:
   * P. Pracht, E. Caldeweyher, S. Ehlert, S. Grimme, ChemRxiv, 2019, preprint.
     DOI: 10.26434/chemrxiv.8326202.v1
   for GFN-FF:
   * S. Spicher and S. Grimme, Angew. Chem. Int. Ed., 2020, 59, 15665-15673.
     DOI: 10.1002/anie.202004239
   
   for ALPB and GBSA implicit solvation:
   * S. Ehlert, M. Stahn, S. Spicher, S. Grimme, J. Chem. Theory Comput.,
     2021, 17, 4250-4261. DOI: 10.1021/acs.jctc.1c00471
   
   for ddCOSMO and CPCM-X implicit solvation:
   * M. Stahn, S. Ehlert, S. Grimme, J. Phys. Chem. A,
     2023, XX, XXXX-XXXX. DOI: 10.1021/acs.jpca.3c04382
   
   for DFT-D4:
   * E. Caldeweyher, C. Bannwarth and S. Grimme, J. Chem. Phys., 2017,
     147, 034112. DOI: 10.1063/1.4993215
   * E. Caldeweyher, S. Ehlert, A. Hansen, H. Neugebauer, S. Spicher,
     C. Bannwarth and S. Grimme, J. Chem. Phys., 2019, 150, 154122.
     DOI: 10.1063/1.5090222
   * E. Caldeweyher, J.-M. Mewes, S. Ehlert and S. Grimme, Phys. Chem. Chem. Phys.
     2020, 22, 8499-8512. DOI: 10.1039/D0CP00502A
   
   for sTDA-xTB:
   * S. Grimme and C. Bannwarth, J. Chem. Phys., 2016, 145, 054103.
     DOI: 10.1063/1.4959605
   
   in the mass-spec context:
   * V. Asgeirsson, C. Bauer and S. Grimme, Chem. Sci., 2017, 8, 4879.
     DOI: 10.1039/c7sc00601b
   * J. Koopman and S. Grimme, ACS Omega 2019, 4, 12, 15120-15133.
     DOI: 10.1021/acsomega.9b02011
   
   for metadynamics refer to:
   * S. Grimme, J. Chem. Theory Comput., 2019, 155, 2847-2862
     DOI: 10.1021/acs.jctc.9b00143
   
   for SPH calculations refer to:
   * S. Spicher and S. Grimme, J. Chem. Theory Comput., 2021, 17, 1701-1714
     DOI: 10.1021/acs.jctc.0c01306
   
   for ONIOM refer to:
   * C. Plett, A. Katbashev, S. Ehlert, S. Grimme, M. Bursch,
     Phys. Chem. Chem. Phys., 2023, 25, 17860-17868. DOI: 10.1039/D3CP02178E
   
   for DIPRO refer to:
   * J. Kohn, N. Gildemeister, S. Grimme, D. Fazzi, A. Hansen,
     J. Chem. Phys., 2023, just accepted.
   
   for PTB refer to:
   * S. Grimme, M. Mueller, A. Hansen, J. Chem. Phys., 2023, 158, 124111.
     DOI: 10.1063/5.0137838
   
   with help from (in alphabetical order)
   P. Atkinson, C. Bannwarth, F. Bohle, G. Brandenburg, E. Caldeweyher
   M. Checinski, S. Dohm, S. Ehlert, S. Ehrlich, I. Gerasimov, C. Hölzer
   A. Katbashev, J. Kohn, J. Koopman, C. Lavigne, S. Lehtola, F. März, M. Müller,
   F. Musil, H. Neugebauer, J. Pisarek, C. Plett, P. Pracht, F. Pultar,
   J. Seibert, P. Shushkov, S. Spicher, M. Stahn, M. Steiner, T. Strunk,
   J. Stückrath, T. Rose, and J. Unsleber
   
 * started run on 2026/06/19 at 18:52:19.664     
   ID    Z sym.   atoms
    1    6 C      1-11, 13, 18, 20, 22-25, 29, 31, 33, 34, 36-41, 43-50,
                  53-57, 59, 64-72
    2    8 O      12, 14-17, 19, 21, 26-28, 30, 32, 35, 42, 51, 52, 58, 60-63
    3    1 H      73-150

           -------------------------------------------------
          |                Calculation Setup                |
           -------------------------------------------------

          program call               : xtb PAPU-0073/conf03.xyz --gfn 2 --alpb water --chrg 0 --uhf 0 --namespace PAPU-0073/conf03_water
          hostname                   : cpu10
          calculation namespace      : PAPU-0073/conf03_water
          coordinate file            : PAPU-0073/conf03.xyz
          omp threads                :                    16


           -------------------------------------------------
          |                 G F N 2 - x T B                 |
           -------------------------------------------------

        Reference                      10.1021/acs.jctc.8b01176
      * Hamiltonian:
        H0-scaling (s, p, d)           1.850000    2.230000    2.230000
        zeta-weighting                 0.500000
      * Dispersion:
        s8                             2.700000
        a1                             0.520000
        a2                             5.000000
        s9                             5.000000
      * Repulsion:
        kExp                           1.500000    1.000000
        rExp                           1.000000
      * Coulomb:
        alpha                          2.000000
        third order                    shell-resolved
        anisotropic                    true
        a3                             3.000000
        a5                             4.000000
        cn-shift                       1.200000
        cn-exp                         4.000000
        max-rad                        5.000000

      * Solvation model:               ALPB
        Solvent                        water
        Parameter file                 internal GFN2-xTB/ALPB
        Dielectric constant                8.0200E+01
        Reference state                gsolv [1 M gas/solution]
        Free energy shift                  1.0808E-03 Eh       6.7819E-01 kcal/mol
        Temperature                        2.9815E+02 K
        Density                            1.0000E+00 kg/L
        Solvent mass                       1.8000E+01 g/mol
        Interaction kernel             P16
        Born radius scaling (c1)           1.4744E+00
        Born radii integrator          GBOBC
        Born offset                        0.0000E+00 a0       0.0000E+00 AA
        H-bond correction              true
        Ion screening                  false
        Surface tension                    1.0000E-05 Eh       1.5569E+01 dyn/cm
        Grid points                               230 per atom

          ...................................................
          :                      SETUP                      :
          :.................................................:
          :  # basis functions                 366          :
          :  # atomic orbitals                 366          :
          :  # shells                          222          :
          :  # electrons                       408          :
          :  max. iterations                   250          :
          :  Hamiltonian                  GFN2-xTB          :
          :  restarted?                      false          :
          :  GBSA solvation                   true          :
          :  PC potential                    false          :
          :  electronic temp.          300.0000000     K    :
          :  accuracy                    1.0000000          :
          :  -> integral cutoff          0.2500000E+02      :
          :  -> integral neglect         0.1000000E-07      :
          :  -> SCF convergence          0.1000000E-05 Eh   :
          :  -> wf. convergence          0.1000000E-03 e    :
          :  Broyden damping             0.4000000          :
          :  net charge                          0          :
          :  unpaired electrons                  0          :
          ...................................................

 iter      E             dE          RMSdq      gap      omega  full diag
   1   -236.5763994 -0.236576E+03  0.427E+00    2.58       0.0  T
   2   -236.8355332 -0.259134E+00  0.232E+00    1.85       1.0  T
   3   -236.8279935  0.753968E-02  0.965E-01    1.74       1.0  T
   4   -236.8559758 -0.279823E-01  0.295E-01    1.48       1.0  T
   5   -236.8610622 -0.508633E-02  0.124E-01    1.48       1.0  T
   6   -236.8615991 -0.536931E-03  0.646E-02    1.48       1.0  T
   7   -236.8617124 -0.113259E-03  0.308E-02    1.48       1.0  T
   8   -236.8617558 -0.434348E-04  0.139E-02    1.48       1.0  T
   9   -236.8617638 -0.795210E-05  0.681E-03    1.48       1.2  T
  10   -236.8617652 -0.148838E-05  0.366E-03    1.47       2.2  T
  11   -236.8617657 -0.461858E-06  0.194E-03    1.47       4.2  T
  12   -236.8617659 -0.216767E-06  0.742E-04    1.47      11.0  T
  13   -236.8617659 -0.209653E-07  0.391E-04    1.47      20.9  T

   *** convergence criteria satisfied after 13 iterations ***

         #    Occupation            Energy/Eh            Energy/eV
      -------------------------------------------------------------
         1        2.0000           -0.7741276             -21.0651
       ...           ...                  ...                  ...
       198        2.0000           -0.4092556             -11.1364
       199        2.0000           -0.4088708             -11.1259
       200        2.0000           -0.4046257             -11.0104
       201        2.0000           -0.4035793             -10.9820
       202        2.0000           -0.3995678             -10.8728
       203        2.0000           -0.3864909             -10.5170
       204        2.0000           -0.3698036             -10.0629 (HOMO)
       205                         -0.3158058              -8.5935 (LUMO)
       206                         -0.2510238              -6.8307
       207                         -0.2440281              -6.6403
       208                         -0.2339650              -6.3665
       209                         -0.2313155              -6.2944
       ...                                ...                  ...
       366                          0.6868611              18.6904
      -------------------------------------------------------------
                  HL-Gap            0.0539978 Eh            1.4694 eV
             Fermi-level           -0.3428047 Eh           -9.3282 eV

 SCC (total)                   0 d,  0 h,  0 min,  0.263 sec
 SCC setup                      ...        0 min,  0.004 sec (  1.528%)
 Dispersion                     ...        0 min,  0.005 sec (  1.848%)
 classical contributions        ...        0 min,  0.000 sec (  0.087%)
 integral evaluation            ...        0 min,  0.012 sec (  4.379%)
 iterations                     ...        0 min,  0.202 sec ( 77.006%)
 molecular gradient             ...        0 min,  0.039 sec ( 14.824%)
 printout                       ...        0 min,  0.001 sec (  0.309%)

         :::::::::::::::::::::::::::::::::::::::::::::::::::::
         ::                     SUMMARY                     ::
         :::::::::::::::::::::::::::::::::::::::::::::::::::::
         :: total energy            -234.431215379564 Eh    ::
         :: total w/o Gsasa/hb      -234.397052693692 Eh    ::
         :: gradient norm              0.124327075324 Eh/a0 ::
         :: HOMO-LUMO gap              1.469353672914 eV    ::
         ::.................................................::
         :: SCC energy              -236.846975442203 Eh    ::
         :: -> isotropic ES            0.549986789192 Eh    ::
         :: -> anisotropic ES         -0.016490344166 Eh    ::
         :: -> anisotropic XC          0.020696955168 Eh    ::
         :: -> dispersion             -0.189445184415 Eh    ::
         :: -> Gsolv                  -0.088356755992 Eh    ::
         ::    -> Gelec               -0.054194070120 Eh    ::
         ::    -> Gsasa                0.005930069984 Eh    ::
         ::    -> Ghb                 -0.041173515554 Eh    ::
         ::    -> Gshift               0.001080759698 Eh    ::
         :: repulsion energy           2.415760062640 Eh    ::
         :: add. restraining           0.000000000000 Eh    ::
         :: total charge              -0.000000000000 e     ::
         :::::::::::::::::::::::::::::::::::::::::::::::::::::

           -------------------------------------------------
          |                Property Printout                |
           -------------------------------------------------

    * Orbital Energies and Occupations

         #    Occupation            Energy/Eh            Energy/eV
      -------------------------------------------------------------
         1        2.0000           -0.7741276             -21.0651
       ...           ...                  ...                  ...
       192        2.0000           -0.4176181             -11.3640
       193        2.0000           -0.4164076             -11.3310
       194        2.0000           -0.4158971             -11.3171
       195        2.0000           -0.4136320             -11.2555
       196        2.0000           -0.4118972             -11.2083
       197        2.0000           -0.4104007             -11.1676
       198        2.0000           -0.4092556             -11.1364
       199        2.0000           -0.4088708             -11.1259
       200        2.0000           -0.4046257             -11.0104
       201        2.0000           -0.4035793             -10.9820
       202        2.0000           -0.3995678             -10.8728
       203        2.0000           -0.3864909             -10.5170
       204        2.0000           -0.3698036             -10.0629 (HOMO)
       205                         -0.3158058              -8.5935 (LUMO)
       206                         -0.2510238              -6.8307
       207                         -0.2440281              -6.6403
       208                         -0.2339650              -6.3665
       209                         -0.2313155              -6.2944
       210                         -0.2258474              -6.1456
       211                         -0.1633874              -4.4460
       212                         -0.1417236              -3.8565
       213                         -0.1095738              -2.9817
       214                         -0.0876145              -2.3841
       215                         -0.0788108              -2.1446
       ...                                ...                  ...
       366                          0.6868611              18.6904
      -------------------------------------------------------------
                  HL-Gap            0.0539978 Eh            1.4694 eV
             Fermi-level           -0.3428047 Eh           -9.3282 eV

     #   Z          covCN         q      C6AA      α(0)
     1   6 C        2.840     0.143    24.891     8.176
     2   6 C        2.975    -0.033    28.808     8.804
     3   6 C        2.964    -0.004    28.115     8.697
     4   6 C        2.927    -0.089    30.221     9.015
     5   6 C        2.836     0.147    24.807     8.162
     6   6 C        2.922    -0.099    30.504     9.057
     7   6 C        3.749     0.109    18.849     6.192
     8   6 C        3.722     0.100    19.039     6.231
     9   6 C        3.750     0.106    18.905     6.201
    10   6 C        3.745     0.100    19.005     6.219
    11   6 C        3.742     0.085    19.248     6.259
    12   8 O        1.696    -0.344    19.772     6.003
    13   6 C        3.681     0.079    19.466     6.319
    14   8 O        1.651    -0.493    22.750     6.439
    15   8 O        1.651    -0.495    22.782     6.443
    16   8 O        1.698    -0.326    19.447     5.954
    17   8 O        1.702    -0.288    18.785     5.852
    18   6 C        3.677     0.072    19.590     6.341
    19   8 O        1.654    -0.484    22.548     6.410
    20   6 C        3.632     0.245    17.150     5.961
    21   8 O        1.695    -0.365    20.162     6.062
    22   6 C        3.740     0.107    18.899     6.203
    23   6 C        3.724     0.100    19.034     6.230
    24   6 C        3.722     0.088    19.223     6.261
    25   6 C        3.745     0.089    19.177     6.247
    26   8 O        1.654    -0.491    22.691     6.430
    27   8 O        1.698    -0.325    19.435     5.952
    28   8 O        1.653    -0.498    22.851     6.453
    29   6 C        3.746     0.087    19.204     6.251
    30   8 O        1.704    -0.264    18.368     5.787
    31   6 C        2.759     0.369    20.742     7.458
    32   8 O        0.857    -0.455    22.804     6.403
    33   6 C        2.724     0.352    21.017     7.505
    34   6 C        2.896    -0.085    30.136     9.001
    35   8 O        0.858    -0.482    23.379     6.483
    36   6 C        2.901     0.004    27.932     8.666
    37   6 C        2.896    -0.050    29.230     8.864
    38   6 C        2.894    -0.008    28.214     8.709
    39   6 C        3.803    -0.081    22.041     6.684
    40   6 C        3.725     0.115    18.804     6.192
    41   6 C        2.894    -0.068    29.680     8.932
    42   8 O        1.651    -0.509    23.079     6.485
    43   6 C        2.895    -0.045    29.121     8.848
    44   6 C        2.897    -0.050    29.246     8.867
    45   6 C        2.894    -0.041    29.021     8.832
    46   6 C        3.805    -0.061    21.672     6.627
    47   6 C        3.801    -0.058    21.622     6.620
    48   6 C        3.801    -0.060    21.660     6.626
    49   6 C        3.799    -0.054    21.546     6.609
    50   6 C        3.751    -0.106    22.583     6.777
    51   8 O        1.656    -0.449    21.818     6.306
    52   8 O        1.657    -0.450    21.848     6.310
    53   6 C        3.638     0.238    17.233     5.971
    54   6 C        3.724     0.092    19.153     6.250
    55   6 C        3.725     0.101    19.015     6.227
    56   6 C        3.722     0.090    19.189     6.256
    57   6 C        3.739     0.104    18.947     6.211
    58   8 O        1.695    -0.372    20.298     6.083
    59   6 C        3.674     0.073    19.586     6.342
    60   8 O        1.654    -0.497    22.836     6.451
    61   8 O        1.653    -0.479    22.436     6.394
    62   8 O        1.653    -0.475    22.359     6.383
    63   8 O        1.653    -0.472    22.290     6.373
    64   6 C        3.803    -0.098    22.369     6.733
    65   6 C        3.750    -0.104    22.545     6.772
    66   6 C        3.800    -0.061    21.667     6.627
    67   6 C        3.801    -0.059    21.644     6.624
    68   6 C        3.801    -0.058    21.626     6.621
    69   6 C        3.800    -0.060    21.664     6.627
    70   6 C        3.801    -0.060    21.645     6.624
    71   6 C        3.800    -0.060    21.654     6.626
    72   6 C        3.800    -0.066    21.773     6.644
    73   1 H        0.926     0.063     2.161     2.299
    74   1 H        0.926     0.075     2.034     2.230
    75   1 H        0.924     0.031     2.569     2.507
    76   1 H        0.923     0.059     2.211     2.325
    77   1 H        0.924     0.040     2.443     2.444
    78   1 H        0.923     0.094     1.844     2.123
    79   1 H        0.924     0.055     2.256     2.349
    80   1 H        0.924     0.056     2.246     2.344
    81   1 H        0.924     0.025     2.661     2.551
    82   1 H        0.801     0.319     0.667     1.283
    83   1 H        0.802     0.336     0.623     1.240
    84   1 H        0.924     0.066     2.125     2.280
    85   1 H        0.924     0.052     2.301     2.372
    86   1 H        0.803     0.352     0.584     1.200
    87   1 H        0.924     0.013     2.841     2.636
    88   1 H        0.923     0.052     2.291     2.367
    89   1 H        0.923     0.052     2.292     2.368
    90   1 H        0.923     0.059     2.206     2.323
    91   1 H        0.924     0.092     1.863     2.134
    92   1 H        0.804     0.369     0.545     1.160
    93   1 H        0.803     0.376     0.532     1.145
    94   1 H        0.924     0.078     2.001     2.212
    95   1 H        0.924     0.059     2.205     2.322
    96   1 H        0.926     0.078     1.995     2.209
    97   1 H        0.926     0.076     2.019     2.222
    98   1 H        0.926     0.079     1.990     2.206
    99   1 H        0.926     0.058     2.223     2.332
   100   1 H        0.924     0.088     1.899     2.155
   101   1 H        0.924     0.077     2.014     2.219
   102   1 H        0.923     0.051     2.305     2.374
   103   1 H        0.926     0.059     2.214     2.327
   104   1 H        0.803     0.332     0.632     1.249
   105   1 H        0.926     0.036     2.505     2.475
   106   1 H        0.926     0.031     2.572     2.508
   107   1 H        0.926     0.054     2.276     2.359
   108   1 H        0.924     0.048     2.351     2.398
   109   1 H        0.924     0.037     2.494     2.470
   110   1 H        0.924     0.032     2.559     2.501
   111   1 H        0.924     0.033     2.538     2.491
   112   1 H        0.924     0.020     2.729     2.583
   113   1 H        0.924     0.029     2.599     2.521
   114   1 H        0.924     0.027     2.627     2.535
   115   1 H        0.924     0.035     2.515     2.480
   116   1 H        0.924     0.033     2.545     2.495
   117   1 H        0.924     0.039     2.466     2.456
   118   1 H        0.924     0.028     2.616     2.529
   119   1 H        0.804     0.382     0.519     1.132
   120   1 H        0.804     0.380     0.524     1.137
   121   1 H        0.923     0.013     2.846     2.638
   122   1 H        0.923     0.058     2.224     2.332
   123   1 H        0.923     0.038     2.481     2.463
   124   1 H        0.923     0.051     2.313     2.378
   125   1 H        0.924     0.017     2.772     2.604
   126   1 H        0.924     0.057     2.230     2.336
   127   1 H        0.924     0.082     1.957     2.188
   128   1 H        0.804     0.380     0.524     1.137
   129   1 H        0.803     0.370     0.543     1.157
   130   1 H        0.804     0.362     0.560     1.176
   131   1 H        0.802     0.317     0.673     1.289
   132   1 H        0.924     0.078     2.000     2.211
   133   1 H        0.924     0.094     1.840     2.122
   134   1 H        0.924     0.032     2.556     2.500
   135   1 H        0.924     0.036     2.499     2.472
   136   1 H        0.924     0.031     2.570     2.507
   137   1 H        0.924     0.034     2.529     2.487
   138   1 H        0.924     0.035     2.523     2.484
   139   1 H        0.924     0.028     2.609     2.526
   140   1 H        0.924     0.031     2.570     2.507
   141   1 H        0.924     0.024     2.667     2.554
   142   1 H        0.924     0.028     2.622     2.532
   143   1 H        0.924     0.033     2.541     2.493
   144   1 H        0.924     0.032     2.559     2.502
   145   1 H        0.924     0.064     2.148     2.292
   146   1 H        0.924     0.051     2.302     2.373
   147   1 H        0.924     0.020     2.726     2.582
   148   1 H        0.924     0.043     2.408     2.427
   149   1 H        0.924     0.040     2.447     2.446
   150   1 H        0.924     0.036     2.503     2.474

 Mol. C6AA /au·bohr⁶  :     200436.457794
 Mol. C8AA /au·bohr⁸  :    4463560.597541
 Mol. α(0) /au        :        666.018902


Wiberg/Mayer (AO) data.
largest (>0.10) Wiberg bond orders for each atom

 ---------------------------------------------------------------------------
     #   Z sym  total        # sym  WBO       # sym  WBO       # sym  WBO
 ---------------------------------------------------------------------------
     1   6 C    3.945 --     6 C    1.391     2 C    1.333    51 O    1.078
     2   6 C    3.976 --     3 C    1.392     1 C    1.333     7 C    0.993
     3   6 C    3.986 --     4 C    1.424     2 C    1.392    13 C    1.003
     4   6 C    3.981 --     3 C    1.424     5 C    1.363    73 H    0.962
     5   6 C    3.945 --     6 C    1.377     4 C    1.363    52 O    1.078
     6   6 C    3.978 --     1 C    1.391     5 C    1.377    74 H    0.961
     7   6 C    3.945 --     2 C    0.993    12 O    0.955     8 C    0.952
                            75 H    0.950
     8   6 C    3.949 --    15 O    0.986     9 C    0.968    76 H    0.955
                             7 C    0.952
     9   6 C    3.930 --    10 C    0.969     8 C    0.968    77 H    0.950
                            17 O    0.936
    10   6 C    3.931 --     9 C    0.969    16 O    0.960    11 C    0.958
                            78 H    0.946
    11   6 C    3.944 --    18 C    0.983    12 O    0.968    10 C    0.958
                            79 H    0.942
    12   8 O    2.059 --    11 C    0.968     7 C    0.955
    13   6 C    3.956 --     3 C    1.003    14 O    0.986    80 H    0.969
                            81 H    0.955
    14   8 O    1.923 --    13 C    0.986    82 H    0.849
    15   8 O    1.944 --     8 C    0.986    83 H    0.828
    16   8 O    2.089 --    20 C    0.982    10 C    0.960
    17   8 O    2.283 --    33 C    1.089     9 C    0.936    35 O    0.144
    18   6 C    3.959 --    19 O    1.010    11 C    0.983    84 H    0.967
                            85 H    0.966
    19   8 O    1.926 --    18 C    1.010    86 H    0.855
    20   6 C    3.922 --    16 O    0.982    25 C    0.954    21 O    0.953
                            87 H    0.940
    21   8 O    2.056 --    20 C    0.953    22 C    0.948
    22   6 C    3.938 --    29 C    0.986    23 C    0.971    88 H    0.953
                            21 O    0.948
    23   6 C    3.965 --    28 O    1.004    22 C    0.971    24 C    0.968
                            89 H    0.956
    24   6 C    3.959 --    26 O    0.999    23 C    0.968    25 C    0.962
                            90 H    0.948
    25   6 C    3.937 --    27 O    0.966    24 C    0.962    20 C    0.954
                            91 H    0.953
    26   8 O    1.926 --    24 C    0.999    92 H    0.846
    27   8 O    2.083 --    53 C    0.978    25 C    0.966
    28   8 O    1.913 --    23 C    1.004    93 H    0.836
    29   6 C    3.933 --    22 C    0.986    95 H    0.964    94 H    0.962
                            30 O    0.960
    30   8 O    2.295 --    31 C    1.107    29 C    0.960    32 O    0.162
    31   6 C    3.891 --    32 O    1.732    30 O    1.107    64 C    0.986
    32   8 O    2.003 --    31 C    1.732    30 O    0.162
    33   6 C    3.897 --    35 O    1.600    17 O    1.089    34 C    1.088
    34   6 C    3.974 --    36 C    1.704    33 C    1.088    96 H    0.953
    35   8 O    1.994 --    33 C    1.600    17 O    0.144
    36   6 C    3.971 --    34 C    1.704    37 C    1.154    97 H    0.957
    37   6 C    3.984 --    38 C    1.774    36 C    1.154    98 H    0.957
    38   6 C    3.979 --    37 C    1.774    39 C    1.052    99 H    0.951
    39   6 C    3.989 --    38 C    1.052   101 H    0.964    40 C    0.950
                           100 H    0.932
    40   6 C    3.950 --    41 C    1.011    42 O    0.986   102 H    0.952
                            39 C    0.950
    41   6 C    3.986 --    43 C    1.833    40 C    1.011   103 H    0.948
                            45 C    0.125
    42   8 O    1.921 --    40 C    0.986   104 H    0.849
    43   6 C    3.990 --    41 C    1.833    44 C    1.117   105 H    0.967
    44   6 C    3.990 --    45 C    1.829    43 C    1.117   106 H    0.966
    45   6 C    3.988 --    44 C    1.829    46 C    1.033   107 H    0.952
                            41 C    0.125
    46   6 C    3.996 --    45 C    1.033    47 C    0.990   109 H    0.972
                           108 H    0.957
    47   6 C    3.995 --    48 C    1.007    46 C    0.990   110 H    0.976
                           111 H    0.972
    48   6 C    3.996 --    49 C    1.008    47 C    1.007   112 H    0.971
                           113 H    0.964
    49   6 C    3.997 --    50 C    1.021    48 C    1.008   114 H    0.977
                           115 H    0.974
    50   6 C    3.996 --    49 C    1.021   116 H    0.987   117 H    0.986
                           118 H    0.982
    51   8 O    2.078 --     1 C    1.078   119 H    0.835
    52   8 O    2.074 --     5 C    1.078   120 H    0.838
    53   6 C    3.918 --    27 O    0.978    54 C    0.953    58 O    0.951
                           121 H    0.946
    54   6 C    3.960 --    62 O    1.001    55 C    0.975   122 H    0.956
                            53 C    0.953
    55   6 C    3.964 --    61 O    0.995    54 C    0.975    56 C    0.965
                           123 H    0.952
    56   6 C    3.965 --    60 O    1.006    57 C    0.966    55 C    0.965
                           124 H    0.957
    57   6 C    3.935 --    59 C    0.982    56 C    0.966   125 H    0.946
                            58 O    0.945
    58   8 O    2.057 --    53 C    0.951    57 C    0.945
    59   6 C    3.951 --    63 O    1.005    57 C    0.982   127 H    0.966
                           126 H    0.963
    60   8 O    1.915 --    56 C    1.006   128 H    0.837
    61   8 O    1.951 --    55 C    0.995   129 H    0.839
    62   8 O    1.944 --    54 C    1.001   130 H    0.850
    63   8 O    1.945 --    59 C    1.005   131 H    0.853
    64   6 C    3.984 --    31 C    0.986    70 C    0.980   132 H    0.971
                           133 H    0.951
    65   6 C    3.997 --    66 C    1.021   135 H    0.987   136 H    0.987
                           134 H    0.987
    66   6 C    3.995 --    65 C    1.021    67 C    1.008   137 H    0.975
                           138 H    0.966
    67   6 C    3.997 --    66 C    1.008    68 C    1.007   139 H    0.977
                           140 H    0.976
    68   6 C    3.996 --    69 C    1.008    67 C    1.007   141 H    0.975
                           142 H    0.973
    69   6 C    3.997 --    68 C    1.008    72 C    1.007   144 H    0.977
                           143 H    0.976
    70   6 C    3.989 --    71 C    1.007    64 C    0.980   146 H    0.976
                           145 H    0.972
    71   6 C    3.996 --    72 C    1.008    70 C    1.007   148 H    0.975
                           147 H    0.972
    72   6 C    3.996 --    71 C    1.008    69 C    1.007   149 H    0.976
                           150 H    0.973
    73   1 H    0.996 --     4 C    0.962
    74   1 H    0.994 --     6 C    0.961
    75   1 H    0.999 --     7 C    0.950
    76   1 H    0.996 --     8 C    0.955
    77   1 H    0.998 --     9 C    0.950
    78   1 H    0.991 --    10 C    0.946
    79   1 H    0.997 --    11 C    0.942
    80   1 H    0.997 --    13 C    0.969
    81   1 H    0.999 --    13 C    0.955
    82   1 H    0.898 --    14 O    0.849
    83   1 H    0.887 --    15 O    0.828
    84   1 H    0.995 --    18 C    0.967
    85   1 H    0.997 --    18 C    0.966
    86   1 H    0.876 --    19 O    0.855
    87   1 H    1.000 --    20 C    0.940
    88   1 H    0.997 --    22 C    0.953
    89   1 H    0.997 --    23 C    0.956
    90   1 H    0.996 --    24 C    0.948
    91   1 H    0.991 --    25 C    0.953
    92   1 H    0.863 --    26 O    0.846
    93   1 H    0.859 --    28 O    0.836
    94   1 H    0.994 --    29 C    0.962
    95   1 H    0.996 --    29 C    0.964
    96   1 H    0.994 --    34 C    0.953
    97   1 H    0.993 --    36 C    0.957
    98   1 H    0.993 --    37 C    0.957
    99   1 H    0.997 --    38 C    0.951
   100   1 H    0.988 --    39 C    0.932
   101   1 H    0.993 --    39 C    0.964
   102   1 H    0.996 --    40 C    0.952
   103   1 H    0.997 --    41 C    0.948
   104   1 H    0.890 --    42 O    0.849
   105   1 H    0.998 --    43 C    0.967
   106   1 H    0.999 --    44 C    0.966
   107   1 H    0.997 --    45 C    0.952
   108   1 H    0.997 --    46 C    0.957
   109   1 H    0.998 --    46 C    0.972
   110   1 H    0.998 --    47 C    0.976
   111   1 H    0.999 --    47 C    0.972
   112   1 H    1.000 --    48 C    0.971
   113   1 H    0.999 --    48 C    0.964
   114   1 H    0.999 --    49 C    0.977
   115   1 H    0.999 --    49 C    0.974
   116   1 H    0.999 --    50 C    0.987
   117   1 H    0.998 --    50 C    0.986
   118   1 H    0.999 --    50 C    0.982
   119   1 H    0.854 --    51 O    0.835
   120   1 H    0.855 --    52 O    0.838
   121   1 H    1.000 --    53 C    0.946
   122   1 H    0.996 --    54 C    0.956
   123   1 H    0.999 --    55 C    0.952
   124   1 H    0.997 --    56 C    0.957
   125   1 H    1.000 --    57 C    0.946
   126   1 H    0.996 --    59 C    0.963
   127   1 H    0.993 --    59 C    0.966
   128   1 H    0.856 --    60 O    0.837
   129   1 H    0.862 --    61 O    0.839
   130   1 H    0.868 --    62 O    0.850
   131   1 H    0.900 --    63 O    0.853
   132   1 H    0.994 --    64 C    0.971
   133   1 H    0.991 --    64 C    0.951
   134   1 H    0.999 --    65 C    0.987
   135   1 H    0.999 --    65 C    0.987
   136   1 H    0.999 --    65 C    0.987
   137   1 H    0.999 --    66 C    0.975
   138   1 H    0.999 --    66 C    0.966
   139   1 H    0.999 --    67 C    0.977
   140   1 H    0.999 --    67 C    0.976
   141   1 H    0.999 --    68 C    0.975
   142   1 H    0.999 --    68 C    0.973
   143   1 H    0.999 --    69 C    0.976
   144   1 H    0.999 --    69 C    0.977
   145   1 H    0.995 --    70 C    0.972
   146   1 H    0.997 --    70 C    0.976
   147   1 H    1.000 --    71 C    0.972
   148   1 H    0.998 --    71 C    0.975
   149   1 H    0.998 --    72 C    0.976
   150   1 H    0.999 --    72 C    0.973
 ---------------------------------------------------------------------------

Topologies differ in total number of bonds
Writing topology from bond orders to xtbtopo.mol

molecular dipole:
                 x           y           z       tot (Debye)
 q only:        3.044       0.068       0.859
   full:        3.224      -0.173       0.797       8.454
molecular quadrupole (traceless):
                xx          xy          yy          xz          yz          zz
 q only:        8.861       8.709      11.969     -12.920     -18.288     -20.830
  q+dip:        0.671       8.346      15.897     -17.898     -24.687     -16.568
   full:        1.691       9.863      14.116     -18.239     -26.297     -15.807


           -------------------------------------------------
          | TOTAL ENERGY             -234.431215379564 Eh   |
          | GRADIENT NORM               0.124327075324 Eh/α |
          | HOMO-LUMO GAP               1.469353672914 eV   |
           -------------------------------------------------

------------------------------------------------------------------------
 * finished run on 2026/06/19 at 18:52:19.982     
------------------------------------------------------------------------
 total:
 * wall-time:     0 d,  0 h,  0 min,  0.317 sec
 *  cpu-time:     0 d,  0 h,  0 min,  4.786 sec
 * ratio c/w:    15.075 speedup
 SCF:
 * wall-time:     0 d,  0 h,  0 min,  0.263 sec
 *  cpu-time:     0 d,  0 h,  0 min,  4.119 sec
 * ratio c/w:    15.636 speedup

normal termination of xtb
