      -----------------------------------------------------------      
     |                   =====================                   |     
     |                           x T B                           |     
     |                   =====================                   |     
     |                         S. Grimme                         |     
     |          Mulliken Center for Theoretical Chemistry        |     
     |                    University of Bonn                     |     
      -----------------------------------------------------------      

   * xtb version 6.7.1 (edcfbbe) compiled by 'albert@albert-system' on 2024-07-22

   xtb is free software: you can redistribute it and/or modify it under
   the terms of the GNU Lesser General Public License as published by
   the Free Software Foundation, either version 3 of the License, or
   (at your option) any later version.
   
   xtb is distributed in the hope that it will be useful,
   but WITHOUT ANY WARRANTY; without even the implied warranty of
   MERCHANTABILITY or FITNESS FOR A PARTICULAR PURPOSE.  See the
   GNU Lesser General Public License for more details.
   
   Cite this work as:
   * C. Bannwarth, E. Caldeweyher, S. Ehlert, A. Hansen, P. Pracht,
     J. Seibert, S. Spicher, S. Grimme, WIREs Comput. Mol. Sci., 2020, 11,
     e01493. DOI: 10.1002/wcms.1493
   
   for GFN2-xTB:
   * C. Bannwarth, S. Ehlert and S. Grimme., J. Chem. Theory Comput., 2019,
     15, 1652-1671. DOI: 10.1021/acs.jctc.8b01176
   for GFN1-xTB:
   * S. Grimme, C. Bannwarth, P. Shushkov, J. Chem. Theory Comput., 2017,
     13, 1989-2009. DOI: 10.1021/acs.jctc.7b00118
   for GFN0-xTB:
   * P. Pracht, E. Caldeweyher, S. Ehlert, S. Grimme, ChemRxiv, 2019, preprint.
     DOI: 10.26434/chemrxiv.8326202.v1
   for GFN-FF:
   * S. Spicher and S. Grimme, Angew. Chem. Int. Ed., 2020, 59, 15665-15673.
     DOI: 10.1002/anie.202004239
   
   for ALPB and GBSA implicit solvation:
   * S. Ehlert, M. Stahn, S. Spicher, S. Grimme, J. Chem. Theory Comput.,
     2021, 17, 4250-4261. DOI: 10.1021/acs.jctc.1c00471
   
   for ddCOSMO and CPCM-X implicit solvation:
   * M. Stahn, S. Ehlert, S. Grimme, J. Phys. Chem. A,
     2023, XX, XXXX-XXXX. DOI: 10.1021/acs.jpca.3c04382
   
   for DFT-D4:
   * E. Caldeweyher, C. Bannwarth and S. Grimme, J. Chem. Phys., 2017,
     147, 034112. DOI: 10.1063/1.4993215
   * E. Caldeweyher, S. Ehlert, A. Hansen, H. Neugebauer, S. Spicher,
     C. Bannwarth and S. Grimme, J. Chem. Phys., 2019, 150, 154122.
     DOI: 10.1063/1.5090222
   * E. Caldeweyher, J.-M. Mewes, S. Ehlert and S. Grimme, Phys. Chem. Chem. Phys.
     2020, 22, 8499-8512. DOI: 10.1039/D0CP00502A
   
   for sTDA-xTB:
   * S. Grimme and C. Bannwarth, J. Chem. Phys., 2016, 145, 054103.
     DOI: 10.1063/1.4959605
   
   in the mass-spec context:
   * V. Asgeirsson, C. Bauer and S. Grimme, Chem. Sci., 2017, 8, 4879.
     DOI: 10.1039/c7sc00601b
   * J. Koopman and S. Grimme, ACS Omega 2019, 4, 12, 15120-15133.
     DOI: 10.1021/acsomega.9b02011
   
   for metadynamics refer to:
   * S. Grimme, J. Chem. Theory Comput., 2019, 155, 2847-2862
     DOI: 10.1021/acs.jctc.9b00143
   
   for SPH calculations refer to:
   * S. Spicher and S. Grimme, J. Chem. Theory Comput., 2021, 17, 1701-1714
     DOI: 10.1021/acs.jctc.0c01306
   
   for ONIOM refer to:
   * C. Plett, A. Katbashev, S. Ehlert, S. Grimme, M. Bursch,
     Phys. Chem. Chem. Phys., 2023, 25, 17860-17868. DOI: 10.1039/D3CP02178E
   
   for DIPRO refer to:
   * J. Kohn, N. Gildemeister, S. Grimme, D. Fazzi, A. Hansen,
     J. Chem. Phys., 2023, just accepted.
   
   for PTB refer to:
   * S. Grimme, M. Mueller, A. Hansen, J. Chem. Phys., 2023, 158, 124111.
     DOI: 10.1063/5.0137838
   
   with help from (in alphabetical order)
   P. Atkinson, C. Bannwarth, F. Bohle, G. Brandenburg, E. Caldeweyher
   M. Checinski, S. Dohm, S. Ehlert, S. Ehrlich, I. Gerasimov, C. Hölzer
   A. Katbashev, J. Kohn, J. Koopman, C. Lavigne, S. Lehtola, F. März, M. Müller,
   F. Musil, H. Neugebauer, J. Pisarek, C. Plett, P. Pracht, F. Pultar,
   J. Seibert, P. Shushkov, S. Spicher, M. Stahn, M. Steiner, T. Strunk,
   J. Stückrath, T. Rose, and J. Unsleber
   
 * started run on 2026/06/19 at 18:52:19.334     
   ID    Z sym.   atoms
    1    6 C      1-11, 13, 18, 20, 22-25, 29, 31, 33, 34, 36-41, 43-50,
                  53-57, 59, 64-72
    2    8 O      12, 14-17, 19, 21, 26-28, 30, 32, 35, 42, 51, 52, 58, 60-63
    3    1 H      73-150

           -------------------------------------------------
          |                Calculation Setup                |
           -------------------------------------------------

          program call               : xtb PAPU-0073/conf02.xyz --gfn 2 --alpb octanol --chrg 0 --uhf 0 --namespace PAPU-0073/conf02_octanol
          hostname                   : cpu10
          calculation namespace      : PAPU-0073/conf02_octanol
          coordinate file            : PAPU-0073/conf02.xyz
          omp threads                :                    16


           -------------------------------------------------
          |                 G F N 2 - x T B                 |
           -------------------------------------------------

        Reference                      10.1021/acs.jctc.8b01176
      * Hamiltonian:
        H0-scaling (s, p, d)           1.850000    2.230000    2.230000
        zeta-weighting                 0.500000
      * Dispersion:
        s8                             2.700000
        a1                             0.520000
        a2                             5.000000
        s9                             5.000000
      * Repulsion:
        kExp                           1.500000    1.000000
        rExp                           1.000000
      * Coulomb:
        alpha                          2.000000
        third order                    shell-resolved
        anisotropic                    true
        a3                             3.000000
        a5                             4.000000
        cn-shift                       1.200000
        cn-exp                         4.000000
        max-rad                        5.000000

      * Solvation model:               ALPB
        Solvent                        octanol
        Parameter file                 internal GFN2-xTB/ALPB
        Dielectric constant                9.8629E+00
        Reference state                gsolv [1 M gas/solution]
        Free energy shift                  2.3397E-03 Eh       1.4682E+00 kcal/mol
        Temperature                        2.9815E+02 K
        Density                            8.3000E-01 kg/L
        Solvent mass                       1.3023E+02 g/mol
        Interaction kernel             P16
        Born radius scaling (c1)           1.5898E+00
        Born radii integrator          GBOBC
        Born offset                        0.0000E+00 a0       0.0000E+00 AA
        H-bond correction              true
        Ion screening                  false
        Surface tension                    1.0000E-05 Eh       1.5569E+01 dyn/cm
        Grid points                               230 per atom

          ...................................................
          :                      SETUP                      :
          :.................................................:
          :  # basis functions                 366          :
          :  # atomic orbitals                 366          :
          :  # shells                          222          :
          :  # electrons                       408          :
          :  max. iterations                   250          :
          :  Hamiltonian                  GFN2-xTB          :
          :  restarted?                      false          :
          :  GBSA solvation                   true          :
          :  PC potential                    false          :
          :  electronic temp.          300.0000000     K    :
          :  accuracy                    1.0000000          :
          :  -> integral cutoff          0.2500000E+02      :
          :  -> integral neglect         0.1000000E-07      :
          :  -> SCF convergence          0.1000000E-05 Eh   :
          :  -> wf. convergence          0.1000000E-03 e    :
          :  Broyden damping             0.4000000          :
          :  net charge                          0          :
          :  unpaired electrons                  0          :
          ...................................................

 iter      E             dE          RMSdq      gap      omega  full diag
   1   -236.5866482 -0.236587E+03  0.425E+00    2.55       0.0  T
   2   -236.8545411 -0.267893E+00  0.231E+00    1.66       1.0  T
   3   -236.8494160  0.512516E-02  0.992E-01    1.60       1.0  T
   4   -236.8785482 -0.291322E-01  0.255E-01    1.35       1.0  T
   5   -236.8818830 -0.333480E-02  0.112E-01    1.35       1.0  T
   6   -236.8823672 -0.484148E-03  0.560E-02    1.38       1.0  T
   7   -236.8824636 -0.964445E-04  0.248E-02    1.38       1.0  T
   8   -236.8824910 -0.273756E-04  0.970E-03    1.38       1.0  T
   9   -236.8824949 -0.396916E-05  0.386E-03    1.38       2.1  T
  10   -236.8824952 -0.283852E-06  0.207E-03    1.38       4.0  T
  11   -236.8824953 -0.102186E-06  0.124E-03    1.38       6.6  T
  12   -236.8824954 -0.791057E-07  0.416E-04    1.38      19.6  T
  13   -236.8824954 -0.792198E-08  0.195E-04    1.38      41.9  T

   *** convergence criteria satisfied after 13 iterations ***

         #    Occupation            Energy/Eh            Energy/eV
      -------------------------------------------------------------
         1        2.0000           -0.7830242             -21.3072
       ...           ...                  ...                  ...
       198        2.0000           -0.4110670             -11.1857
       199        2.0000           -0.4107582             -11.1773
       200        2.0000           -0.4092363             -11.1359
       201        2.0000           -0.4054723             -11.0335
       202        2.0000           -0.4030778             -10.9683
       203        2.0000           -0.3926901             -10.6856
       204        2.0000           -0.3757237             -10.2240 (HOMO)
       205                         -0.3250369              -8.8447 (LUMO)
       206                         -0.2502170              -6.8088
       207                         -0.2495864              -6.7916
       208                         -0.2408294              -6.5533
       209                         -0.2395500              -6.5185
       ...                                ...                  ...
       366                          0.6807871              18.5252
      -------------------------------------------------------------
                  HL-Gap            0.0506868 Eh            1.3793 eV
             Fermi-level           -0.3503803 Eh           -9.5343 eV

 SCC (total)                   0 d,  0 h,  0 min,  0.268 sec
 SCC setup                      ...        0 min,  0.003 sec (  1.268%)
 Dispersion                     ...        0 min,  0.004 sec (  1.479%)
 classical contributions        ...        0 min,  0.000 sec (  0.047%)
 integral evaluation            ...        0 min,  0.012 sec (  4.408%)
 iterations                     ...        0 min,  0.207 sec ( 77.324%)
 molecular gradient             ...        0 min,  0.039 sec ( 14.664%)
 printout                       ...        0 min,  0.002 sec (  0.792%)

         :::::::::::::::::::::::::::::::::::::::::::::::::::::
         ::                     SUMMARY                     ::
         :::::::::::::::::::::::::::::::::::::::::::::::::::::
         :: total energy            -234.452210227491 Eh    ::
         :: total w/o Gsasa/hb      -234.378936392292 Eh    ::
         :: gradient norm              0.125867753713 Eh/a0 ::
         :: HOMO-LUMO gap              1.379258085735 eV    ::
         ::.................................................::
         :: SCC energy              -236.867634161509 Eh    ::
         :: -> isotropic ES            0.532967233693 Eh    ::
         :: -> anisotropic ES         -0.016114187045 Eh    ::
         :: -> anisotropic XC          0.020169596565 Eh    ::
         :: -> dispersion             -0.189637281203 Eh    ::
         :: -> Gsolv                  -0.104667051619 Eh    ::
         ::    -> Gelec               -0.031393216420 Eh    ::
         ::    -> Gsasa               -0.030262420565 Eh    ::
         ::    -> Ghb                 -0.045351084011 Eh    ::
         ::    -> Gshift               0.002339669376 Eh    ::
         :: repulsion energy           2.415423934018 Eh    ::
         :: add. restraining           0.000000000000 Eh    ::
         :: total charge               0.000000000000 e     ::
         :::::::::::::::::::::::::::::::::::::::::::::::::::::

           -------------------------------------------------
          |                Property Printout                |
           -------------------------------------------------

    * Orbital Energies and Occupations

         #    Occupation            Energy/Eh            Energy/eV
      -------------------------------------------------------------
         1        2.0000           -0.7830242             -21.3072
       ...           ...                  ...                  ...
       192        2.0000           -0.4215448             -11.4708
       193        2.0000           -0.4210449             -11.4572
       194        2.0000           -0.4189466             -11.4001
       195        2.0000           -0.4171051             -11.3500
       196        2.0000           -0.4153111             -11.3012
       197        2.0000           -0.4132224             -11.2444
       198        2.0000           -0.4110670             -11.1857
       199        2.0000           -0.4107582             -11.1773
       200        2.0000           -0.4092363             -11.1359
       201        2.0000           -0.4054723             -11.0335
       202        2.0000           -0.4030778             -10.9683
       203        2.0000           -0.3926901             -10.6856
       204        2.0000           -0.3757237             -10.2240 (HOMO)
       205                         -0.3250369              -8.8447 (LUMO)
       206                         -0.2502170              -6.8088
       207                         -0.2495864              -6.7916
       208                         -0.2408294              -6.5533
       209                         -0.2395500              -6.5185
       210                         -0.2318760              -6.3097
       211                         -0.1730100              -4.7078
       212                         -0.1476350              -4.0174
       213                         -0.1155021              -3.1430
       214                         -0.0958986              -2.6095
       215                         -0.0898695              -2.4455
       ...                                ...                  ...
       366                          0.6807871              18.5252
      -------------------------------------------------------------
                  HL-Gap            0.0506868 Eh            1.3793 eV
             Fermi-level           -0.3503803 Eh           -9.5343 eV

     #   Z          covCN         q      C6AA      α(0)
     1   6 C        2.839     0.146    24.814     8.164
     2   6 C        2.975    -0.033    28.825     8.807
     3   6 C        2.964    -0.004    28.123     8.698
     4   6 C        2.927    -0.092    30.321     9.030
     5   6 C        2.836     0.152    24.706     8.146
     6   6 C        2.922    -0.103    30.608     9.073
     7   6 C        3.750     0.109    18.858     6.193
     8   6 C        3.722     0.095    19.108     6.243
     9   6 C        3.750     0.103    18.945     6.208
    10   6 C        3.745     0.097    19.052     6.226
    11   6 C        3.742     0.079    19.330     6.273
    12   8 O        1.696    -0.338    19.673     5.988
    13   6 C        3.681     0.076    19.517     6.327
    14   8 O        1.651    -0.489    22.661     6.426
    15   8 O        1.651    -0.497    22.831     6.450
    16   8 O        1.698    -0.321    19.362     5.941
    17   8 O        1.702    -0.289    18.797     5.854
    18   6 C        3.677     0.067    19.666     6.353
    19   8 O        1.654    -0.476    22.392     6.388
    20   6 C        3.632     0.246    17.139     5.959
    21   8 O        1.695    -0.362    20.106     6.054
    22   6 C        3.739     0.105    18.936     6.209
    23   6 C        3.724     0.097    19.073     6.236
    24   6 C        3.722     0.082    19.323     6.278
    25   6 C        3.745     0.085    19.239     6.257
    26   8 O        1.654    -0.482    22.516     6.406
    27   8 O        1.698    -0.323    19.401     5.947
    28   8 O        1.653    -0.484    22.549     6.410
    29   6 C        3.746     0.079    19.329     6.271
    30   8 O        1.704    -0.266    18.408     5.793
    31   6 C        2.759     0.370    20.730     7.456
    32   8 O        0.857    -0.437    22.439     6.351
    33   6 C        2.724     0.352    21.029     7.507
    34   6 C        2.896    -0.094    30.356     9.033
    35   8 O        0.858    -0.477    23.282     6.469
    36   6 C        2.901    -0.001    28.048     8.684
    37   6 C        2.896    -0.053    29.320     8.878
    38   6 C        2.894    -0.011    28.279     8.719
    39   6 C        3.803    -0.086    22.129     6.697
    40   6 C        3.725     0.112    18.838     6.198
    41   6 C        2.894    -0.071    29.769     8.946
    42   8 O        1.651    -0.501    22.910     6.461
    43   6 C        2.895    -0.045    29.108     8.846
    44   6 C        2.897    -0.051    29.268     8.870
    45   6 C        2.894    -0.040    28.994     8.828
    46   6 C        3.805    -0.063    21.712     6.634
    47   6 C        3.801    -0.060    21.657     6.626
    48   6 C        3.801    -0.061    21.665     6.627
    49   6 C        3.799    -0.056    21.590     6.616
    50   6 C        3.751    -0.109    22.643     6.786
    51   8 O        1.656    -0.439    21.619     6.277
    52   8 O        1.657    -0.433    21.495     6.259
    53   6 C        3.639     0.236    17.249     5.973
    54   6 C        3.724     0.085    19.267     6.268
    55   6 C        3.725     0.096    19.096     6.240
    56   6 C        3.722     0.085    19.275     6.270
    57   6 C        3.739     0.102    18.969     6.215
    58   8 O        1.695    -0.363    20.128     6.057
    59   6 C        3.674     0.068    19.670     6.355
    60   8 O        1.653    -0.480    22.473     6.399
    61   8 O        1.653    -0.475    22.353     6.382
    62   8 O        1.653    -0.469    22.247     6.367
    63   8 O        1.653    -0.465    22.148     6.353
    64   6 C        3.803    -0.102    22.437     6.744
    65   6 C        3.751    -0.108    22.619     6.783
    66   6 C        3.800    -0.062    21.690     6.631
    67   6 C        3.801    -0.061    21.677     6.629
    68   6 C        3.801    -0.061    21.680     6.629
    69   6 C        3.800    -0.061    21.680     6.629
    70   6 C        3.801    -0.061    21.666     6.627
    71   6 C        3.800    -0.062    21.699     6.632
    72   6 C        3.800    -0.067    21.785     6.645
    73   1 H        0.926     0.065     2.136     2.286
    74   1 H        0.926     0.077     2.012     2.218
    75   1 H        0.924     0.029     2.606     2.524
    76   1 H        0.923     0.061     2.187     2.313
    77   1 H        0.924     0.037     2.489     2.467
    78   1 H        0.923     0.095     1.836     2.119
    79   1 H        0.924     0.059     2.215     2.327
    80   1 H        0.924     0.061     2.193     2.316
    81   1 H        0.924     0.028     2.609     2.526
    82   1 H        0.801     0.317     0.672     1.288
    83   1 H        0.802     0.337     0.619     1.236
    84   1 H        0.924     0.069     2.096     2.264
    85   1 H        0.924     0.053     2.287     2.365
    86   1 H        0.803     0.350     0.589     1.205
    87   1 H        0.924     0.012     2.859     2.644
    88   1 H        0.923     0.050     2.318     2.381
    89   1 H        0.923     0.054     2.275     2.359
    90   1 H        0.923     0.062     2.180     2.309
    91   1 H        0.924     0.093     1.854     2.129
    92   1 H        0.804     0.360     0.567     1.182
    93   1 H        0.803     0.365     0.555     1.170
    94   1 H        0.924     0.084     1.940     2.178
    95   1 H        0.924     0.064     2.159     2.298
    96   1 H        0.926     0.081     1.966     2.193
    97   1 H        0.926     0.081     1.966     2.192
    98   1 H        0.926     0.083     1.953     2.185
    99   1 H        0.926     0.056     2.245     2.343
   100   1 H        0.924     0.091     1.870     2.138
   101   1 H        0.924     0.080     1.976     2.199
   102   1 H        0.923     0.056     2.245     2.343
   103   1 H        0.926     0.050     2.324     2.384
   104   1 H        0.803     0.328     0.644     1.261
   105   1 H        0.926     0.041     2.434     2.440
   106   1 H        0.926     0.038     2.472     2.459
   107   1 H        0.926     0.048     2.341     2.392
   108   1 H        0.924     0.049     2.336     2.390
   109   1 H        0.924     0.042     2.420     2.433
   110   1 H        0.924     0.037     2.483     2.464
   111   1 H        0.924     0.030     2.591     2.517
   112   1 H        0.924     0.018     2.771     2.603
   113   1 H        0.924     0.029     2.607     2.525
   114   1 H        0.924     0.031     2.575     2.510
   115   1 H        0.924     0.040     2.455     2.450
   116   1 H        0.924     0.034     2.534     2.489
   117   1 H        0.924     0.041     2.439     2.443
   118   1 H        0.924     0.027     2.628     2.535
   119   1 H        0.804     0.365     0.554     1.169
   120   1 H        0.804     0.361     0.563     1.178
   121   1 H        0.923     0.012     2.851     2.641
   122   1 H        0.923     0.056     2.241     2.341
   123   1 H        0.923     0.037     2.489     2.467
   124   1 H        0.923     0.050     2.322     2.383
   125   1 H        0.924     0.010     2.888     2.657
   126   1 H        0.924     0.057     2.236     2.338
   127   1 H        0.924     0.090     1.877     2.143
   128   1 H        0.803     0.367     0.550     1.165
   129   1 H        0.803     0.364     0.556     1.171
   130   1 H        0.804     0.359     0.568     1.184
   131   1 H        0.802     0.318     0.670     1.286
   132   1 H        0.924     0.075     2.036     2.231
   133   1 H        0.924     0.090     1.877     2.143
   134   1 H        0.924     0.040     2.450     2.448
   135   1 H        0.924     0.030     2.587     2.515
   136   1 H        0.924     0.033     2.545     2.495
   137   1 H        0.924     0.037     2.489     2.467
   138   1 H        0.924     0.029     2.595     2.519
   139   1 H        0.924     0.032     2.559     2.502
   140   1 H        0.924     0.031     2.567     2.506
   141   1 H        0.924     0.025     2.659     2.550
   142   1 H        0.924     0.033     2.545     2.495
   143   1 H        0.924     0.034     2.535     2.490
   144   1 H        0.924     0.034     2.536     2.491
   145   1 H        0.924     0.062     2.178     2.308
   146   1 H        0.924     0.054     2.276     2.359
   147   1 H        0.924     0.025     2.653     2.547
   148   1 H        0.924     0.044     2.390     2.418
   149   1 H        0.924     0.039     2.464     2.455
   150   1 H        0.924     0.036     2.501     2.473

 Mol. C6AA /au·bohr⁶  :     200247.048684
 Mol. C8AA /au·bohr⁸  :    4461145.521832
 Mol. α(0) /au        :        665.729567


Wiberg/Mayer (AO) data.
largest (>0.10) Wiberg bond orders for each atom

 ---------------------------------------------------------------------------
     #   Z sym  total        # sym  WBO       # sym  WBO       # sym  WBO
 ---------------------------------------------------------------------------
     1   6 C    3.944 --     6 C    1.392     2 C    1.334    51 O    1.075
     2   6 C    3.975 --     3 C    1.392     1 C    1.334     7 C    0.992
     3   6 C    3.986 --     4 C    1.424     2 C    1.392    13 C    1.003
     4   6 C    3.981 --     3 C    1.424     5 C    1.363    73 H    0.962
     5   6 C    3.945 --     6 C    1.376     4 C    1.363    52 O    1.078
     6   6 C    3.978 --     1 C    1.392     5 C    1.376    74 H    0.961
     7   6 C    3.947 --     2 C    0.992    12 O    0.956     8 C    0.952
                            75 H    0.950
     8   6 C    3.948 --    15 O    0.986     9 C    0.968    76 H    0.955
                             7 C    0.952
     9   6 C    3.929 --     8 C    0.968    10 C    0.968    77 H    0.950
                            17 O    0.936
    10   6 C    3.932 --     9 C    0.968    16 O    0.962    11 C    0.958
                            78 H    0.946
    11   6 C    3.943 --    18 C    0.982    12 O    0.969    10 C    0.958
                            79 H    0.942
    12   8 O    2.062 --    11 C    0.969     7 C    0.956
    13   6 C    3.956 --     3 C    1.003    14 O    0.987    80 H    0.968
                            81 H    0.955
    14   8 O    1.925 --    13 C    0.987    82 H    0.850
    15   8 O    1.942 --     8 C    0.986    83 H    0.827
    16   8 O    2.091 --    20 C    0.983    10 C    0.962
    17   8 O    2.282 --    33 C    1.089     9 C    0.936    35 O    0.144
    18   6 C    3.959 --    19 O    1.012    11 C    0.982    84 H    0.967
                            85 H    0.966
    19   8 O    1.931 --    18 C    1.012    86 H    0.857
    20   6 C    3.925 --    16 O    0.983    25 C    0.955    21 O    0.954
                            87 H    0.940
    21   8 O    2.059 --    20 C    0.954    22 C    0.948
    22   6 C    3.938 --    29 C    0.986    23 C    0.971    88 H    0.953
                            21 O    0.948
    23   6 C    3.966 --    28 O    1.005    22 C    0.971    24 C    0.968
                            89 H    0.955
    24   6 C    3.958 --    26 O    0.998    23 C    0.968    25 C    0.962
                            90 H    0.948
    25   6 C    3.936 --    27 O    0.964    24 C    0.962    20 C    0.955
                            91 H    0.952
    26   8 O    1.932 --    24 C    0.998    92 H    0.853
    27   8 O    2.084 --    53 C    0.980    25 C    0.964
    28   8 O    1.922 --    23 C    1.005    93 H    0.844
    29   6 C    3.934 --    22 C    0.986    95 H    0.963    30 O    0.962
                            94 H    0.960
    30   8 O    2.290 --    31 C    1.100    29 C    0.962    32 O    0.161
    31   6 C    3.893 --    32 O    1.745    30 O    1.100    64 C    0.985
    32   8 O    2.016 --    31 C    1.745    30 O    0.161
    33   6 C    3.898 --    35 O    1.603    17 O    1.089    34 C    1.087
    34   6 C    3.973 --    36 C    1.704    33 C    1.087    96 H    0.953
    35   8 O    1.997 --    33 C    1.603    17 O    0.144
    36   6 C    3.970 --    34 C    1.704    37 C    1.154    97 H    0.956
    37   6 C    3.983 --    38 C    1.773    36 C    1.154    98 H    0.956
    38   6 C    3.979 --    37 C    1.773    39 C    1.053    99 H    0.951
    39   6 C    3.988 --    38 C    1.053   101 H    0.964    40 C    0.950
                           100 H    0.931
    40   6 C    3.950 --    41 C    1.011    42 O    0.988   102 H    0.951
                            39 C    0.950
    41   6 C    3.986 --    43 C    1.832    40 C    1.011   103 H    0.949
                            45 C    0.125
    42   8 O    1.926 --    40 C    0.988   104 H    0.853
    43   6 C    3.990 --    41 C    1.832    44 C    1.118   105 H    0.966
    44   6 C    3.990 --    45 C    1.828    43 C    1.118   106 H    0.965
    45   6 C    3.988 --    44 C    1.828    46 C    1.034   107 H    0.952
                            41 C    0.125
    46   6 C    3.996 --    45 C    1.034    47 C    0.990   109 H    0.971
                           108 H    0.957
    47   6 C    3.995 --    48 C    1.007    46 C    0.990   110 H    0.975
                           111 H    0.972
    48   6 C    3.996 --    49 C    1.008    47 C    1.007   112 H    0.971
                           113 H    0.964
    49   6 C    3.996 --    50 C    1.021    48 C    1.008   114 H    0.977
                           115 H    0.974
    50   6 C    3.996 --    49 C    1.021   116 H    0.986   117 H    0.986
                           118 H    0.982
    51   8 O    2.085 --     1 C    1.075   119 H    0.847
    52   8 O    2.088 --     5 C    1.078   120 H    0.851
    53   6 C    3.922 --    27 O    0.980    54 C    0.954    58 O    0.953
                           121 H    0.946
    54   6 C    3.961 --    62 O    1.001    55 C    0.975   122 H    0.956
                            53 C    0.954
    55   6 C    3.962 --    61 O    0.994    54 C    0.975    56 C    0.966
                           123 H    0.951
    56   6 C    3.967 --    60 O    1.009    57 C    0.966    55 C    0.966
                           124 H    0.956
    57   6 C    3.937 --    59 C    0.980    56 C    0.966    58 O    0.947
                           125 H    0.946
    58   8 O    2.062 --    53 C    0.953    57 C    0.947
    59   6 C    3.951 --    63 O    1.008    57 C    0.980   127 H    0.964
                           126 H    0.963
    60   8 O    1.925 --    56 C    1.009   128 H    0.843
    61   8 O    1.957 --    55 C    0.994   129 H    0.844
    62   8 O    1.946 --    54 C    1.001   130 H    0.852
    63   8 O    1.948 --    59 C    1.008   131 H    0.852
    64   6 C    3.985 --    31 C    0.985    70 C    0.980   132 H    0.971
                           133 H    0.953
    65   6 C    3.997 --    66 C    1.021   135 H    0.987   134 H    0.987
                           136 H    0.987
    66   6 C    3.995 --    65 C    1.021    67 C    1.008   137 H    0.974
                           138 H    0.966
    67   6 C    3.997 --    66 C    1.008    68 C    1.007   139 H    0.977
                           140 H    0.976
    68   6 C    3.996 --    69 C    1.008    67 C    1.007   141 H    0.975
                           142 H    0.972
    69   6 C    3.997 --    68 C    1.008    72 C    1.007   144 H    0.977
                           143 H    0.976
    70   6 C    3.989 --    71 C    1.007    64 C    0.980   146 H    0.976
                           145 H    0.973
    71   6 C    3.996 --    72 C    1.008    70 C    1.007   148 H    0.975
                           147 H    0.971
    72   6 C    3.996 --    71 C    1.008    69 C    1.007   149 H    0.976
                           150 H    0.973
    73   1 H    0.995 --     4 C    0.962
    74   1 H    0.993 --     6 C    0.961
    75   1 H    0.999 --     7 C    0.950
    76   1 H    0.996 --     8 C    0.955
    77   1 H    0.998 --     9 C    0.950
    78   1 H    0.990 --    10 C    0.946
    79   1 H    0.996 --    11 C    0.942
    80   1 H    0.996 --    13 C    0.968
    81   1 H    0.999 --    13 C    0.955
    82   1 H    0.899 --    14 O    0.850
    83   1 H    0.886 --    15 O    0.827
    84   1 H    0.995 --    18 C    0.967
    85   1 H    0.997 --    18 C    0.966
    86   1 H    0.878 --    19 O    0.857
    87   1 H    1.000 --    20 C    0.940
    88   1 H    0.997 --    22 C    0.953
    89   1 H    0.997 --    23 C    0.955
    90   1 H    0.996 --    24 C    0.948
    91   1 H    0.991 --    25 C    0.952
    92   1 H    0.870 --    26 O    0.853
    93   1 H    0.867 --    28 O    0.844
    94   1 H    0.993 --    29 C    0.960
    95   1 H    0.996 --    29 C    0.963
    96   1 H    0.993 --    34 C    0.953
    97   1 H    0.993 --    36 C    0.956
    98   1 H    0.992 --    37 C    0.956
    99   1 H    0.997 --    38 C    0.951
   100   1 H    0.987 --    39 C    0.931
   101   1 H    0.993 --    39 C    0.964
   102   1 H    0.996 --    40 C    0.951
   103   1 H    0.998 --    41 C    0.949
   104   1 H    0.893 --    42 O    0.853
   105   1 H    0.998 --    43 C    0.966
   106   1 H    0.998 --    44 C    0.965
   107   1 H    0.998 --    45 C    0.952
   108   1 H    0.997 --    46 C    0.957
   109   1 H    0.998 --    46 C    0.971
   110   1 H    0.998 --    47 C    0.975
   111   1 H    0.999 --    47 C    0.972
   112   1 H    1.000 --    48 C    0.971
   113   1 H    0.999 --    48 C    0.964
   114   1 H    0.999 --    49 C    0.977
   115   1 H    0.998 --    49 C    0.974
   116   1 H    0.999 --    50 C    0.986
   117   1 H    0.998 --    50 C    0.986
   118   1 H    0.999 --    50 C    0.982
   119   1 H    0.866 --    51 O    0.847
   120   1 H    0.869 --    52 O    0.851
   121   1 H    1.000 --    53 C    0.946
   122   1 H    0.996 --    54 C    0.956
   123   1 H    0.999 --    55 C    0.951
   124   1 H    0.997 --    56 C    0.956
   125   1 H    1.000 --    57 C    0.946
   126   1 H    0.996 --    59 C    0.963
   127   1 H    0.992 --    59 C    0.964
   128   1 H    0.865 --    60 O    0.843
   129   1 H    0.867 --    61 O    0.844
   130   1 H    0.871 --    62 O    0.852
   131   1 H    0.899 --    63 O    0.852
   132   1 H    0.994 --    64 C    0.971
   133   1 H    0.991 --    64 C    0.953
   134   1 H    0.998 --    65 C    0.987
   135   1 H    0.999 --    65 C    0.987
   136   1 H    0.999 --    65 C    0.987
   137   1 H    0.999 --    66 C    0.974
   138   1 H    0.999 --    66 C    0.966
   139   1 H    0.999 --    67 C    0.977
   140   1 H    0.999 --    67 C    0.976
   141   1 H    0.999 --    68 C    0.975
   142   1 H    0.999 --    68 C    0.972
   143   1 H    0.999 --    69 C    0.976
   144   1 H    0.999 --    69 C    0.977
   145   1 H    0.996 --    70 C    0.973
   146   1 H    0.997 --    70 C    0.976
   147   1 H    0.999 --    71 C    0.971
   148   1 H    0.998 --    71 C    0.975
   149   1 H    0.998 --    72 C    0.976
   150   1 H    0.999 --    72 C    0.973
 ---------------------------------------------------------------------------

Topologies differ in total number of bonds
Writing topology from bond orders to xtbtopo.mol

molecular dipole:
                 x           y           z       tot (Debye)
 q only:        2.718      -0.092       0.777
   full:        3.021      -0.309       0.700       7.920
molecular quadrupole (traceless):
                xx          xy          yy          xz          yz          zz
 q only:       12.310       4.096       7.814     -12.825     -17.117     -20.124
  q+dip:        4.099       4.479      11.943     -18.382     -24.714     -16.041
   full:        5.116       5.970      10.166     -18.760     -26.311     -15.283


           -------------------------------------------------
          | TOTAL ENERGY             -234.452210227491 Eh   |
          | GRADIENT NORM               0.125867753713 Eh/α |
          | HOMO-LUMO GAP               1.379258085735 eV   |
           -------------------------------------------------

------------------------------------------------------------------------
 * finished run on 2026/06/19 at 18:52:19.651     
------------------------------------------------------------------------
 total:
 * wall-time:     0 d,  0 h,  0 min,  0.316 sec
 *  cpu-time:     0 d,  0 h,  0 min,  4.899 sec
 * ratio c/w:    15.485 speedup
 SCF:
 * wall-time:     0 d,  0 h,  0 min,  0.268 sec
 *  cpu-time:     0 d,  0 h,  0 min,  4.264 sec
 * ratio c/w:    15.883 speedup

normal termination of xtb
