      -----------------------------------------------------------      
     |                   =====================                   |     
     |                           x T B                           |     
     |                   =====================                   |     
     |                         S. Grimme                         |     
     |          Mulliken Center for Theoretical Chemistry        |     
     |                    University of Bonn                     |     
      -----------------------------------------------------------      

   * xtb version 6.7.1 (edcfbbe) compiled by 'albert@albert-system' on 2024-07-22

   xtb is free software: you can redistribute it and/or modify it under
   the terms of the GNU Lesser General Public License as published by
   the Free Software Foundation, either version 3 of the License, or
   (at your option) any later version.
   
   xtb is distributed in the hope that it will be useful,
   but WITHOUT ANY WARRANTY; without even the implied warranty of
   MERCHANTABILITY or FITNESS FOR A PARTICULAR PURPOSE.  See the
   GNU Lesser General Public License for more details.
   
   Cite this work as:
   * C. Bannwarth, E. Caldeweyher, S. Ehlert, A. Hansen, P. Pracht,
     J. Seibert, S. Spicher, S. Grimme, WIREs Comput. Mol. Sci., 2020, 11,
     e01493. DOI: 10.1002/wcms.1493
   
   for GFN2-xTB:
   * C. Bannwarth, S. Ehlert and S. Grimme., J. Chem. Theory Comput., 2019,
     15, 1652-1671. DOI: 10.1021/acs.jctc.8b01176
   for GFN1-xTB:
   * S. Grimme, C. Bannwarth, P. Shushkov, J. Chem. Theory Comput., 2017,
     13, 1989-2009. DOI: 10.1021/acs.jctc.7b00118
   for GFN0-xTB:
   * P. Pracht, E. Caldeweyher, S. Ehlert, S. Grimme, ChemRxiv, 2019, preprint.
     DOI: 10.26434/chemrxiv.8326202.v1
   for GFN-FF:
   * S. Spicher and S. Grimme, Angew. Chem. Int. Ed., 2020, 59, 15665-15673.
     DOI: 10.1002/anie.202004239
   
   for ALPB and GBSA implicit solvation:
   * S. Ehlert, M. Stahn, S. Spicher, S. Grimme, J. Chem. Theory Comput.,
     2021, 17, 4250-4261. DOI: 10.1021/acs.jctc.1c00471
   
   for ddCOSMO and CPCM-X implicit solvation:
   * M. Stahn, S. Ehlert, S. Grimme, J. Phys. Chem. A,
     2023, XX, XXXX-XXXX. DOI: 10.1021/acs.jpca.3c04382
   
   for DFT-D4:
   * E. Caldeweyher, C. Bannwarth and S. Grimme, J. Chem. Phys., 2017,
     147, 034112. DOI: 10.1063/1.4993215
   * E. Caldeweyher, S. Ehlert, A. Hansen, H. Neugebauer, S. Spicher,
     C. Bannwarth and S. Grimme, J. Chem. Phys., 2019, 150, 154122.
     DOI: 10.1063/1.5090222
   * E. Caldeweyher, J.-M. Mewes, S. Ehlert and S. Grimme, Phys. Chem. Chem. Phys.
     2020, 22, 8499-8512. DOI: 10.1039/D0CP00502A
   
   for sTDA-xTB:
   * S. Grimme and C. Bannwarth, J. Chem. Phys., 2016, 145, 054103.
     DOI: 10.1063/1.4959605
   
   in the mass-spec context:
   * V. Asgeirsson, C. Bauer and S. Grimme, Chem. Sci., 2017, 8, 4879.
     DOI: 10.1039/c7sc00601b
   * J. Koopman and S. Grimme, ACS Omega 2019, 4, 12, 15120-15133.
     DOI: 10.1021/acsomega.9b02011
   
   for metadynamics refer to:
   * S. Grimme, J. Chem. Theory Comput., 2019, 155, 2847-2862
     DOI: 10.1021/acs.jctc.9b00143
   
   for SPH calculations refer to:
   * S. Spicher and S. Grimme, J. Chem. Theory Comput., 2021, 17, 1701-1714
     DOI: 10.1021/acs.jctc.0c01306
   
   for ONIOM refer to:
   * C. Plett, A. Katbashev, S. Ehlert, S. Grimme, M. Bursch,
     Phys. Chem. Chem. Phys., 2023, 25, 17860-17868. DOI: 10.1039/D3CP02178E
   
   for DIPRO refer to:
   * J. Kohn, N. Gildemeister, S. Grimme, D. Fazzi, A. Hansen,
     J. Chem. Phys., 2023, just accepted.
   
   for PTB refer to:
   * S. Grimme, M. Mueller, A. Hansen, J. Chem. Phys., 2023, 158, 124111.
     DOI: 10.1063/5.0137838
   
   with help from (in alphabetical order)
   P. Atkinson, C. Bannwarth, F. Bohle, G. Brandenburg, E. Caldeweyher
   M. Checinski, S. Dohm, S. Ehlert, S. Ehrlich, I. Gerasimov, C. Hölzer
   A. Katbashev, J. Kohn, J. Koopman, C. Lavigne, S. Lehtola, F. März, M. Müller,
   F. Musil, H. Neugebauer, J. Pisarek, C. Plett, P. Pracht, F. Pultar,
   J. Seibert, P. Shushkov, S. Spicher, M. Stahn, M. Steiner, T. Strunk,
   J. Stückrath, T. Rose, and J. Unsleber
   
 * started run on 2026/06/19 at 18:52:18.300     
   ID    Z sym.   atoms
    1    6 C      1-11, 13, 18, 20, 22-25, 29, 31, 33, 34, 36-41, 43-50,
                  53-57, 59, 64-72
    2    8 O      12, 14-17, 19, 21, 26-28, 30, 32, 35, 42, 51, 52, 58, 60-63
    3    1 H      73-150

           -------------------------------------------------
          |                Calculation Setup                |
           -------------------------------------------------

          program call               : xtb PAPU-0073/conf01.xyz --gfn 2 --alpb water --chrg 0 --uhf 0 --namespace PAPU-0073/conf01_water
          hostname                   : cpu10
          calculation namespace      : PAPU-0073/conf01_water
          coordinate file            : PAPU-0073/conf01.xyz
          omp threads                :                    16


           -------------------------------------------------
          |                 G F N 2 - x T B                 |
           -------------------------------------------------

        Reference                      10.1021/acs.jctc.8b01176
      * Hamiltonian:
        H0-scaling (s, p, d)           1.850000    2.230000    2.230000
        zeta-weighting                 0.500000
      * Dispersion:
        s8                             2.700000
        a1                             0.520000
        a2                             5.000000
        s9                             5.000000
      * Repulsion:
        kExp                           1.500000    1.000000
        rExp                           1.000000
      * Coulomb:
        alpha                          2.000000
        third order                    shell-resolved
        anisotropic                    true
        a3                             3.000000
        a5                             4.000000
        cn-shift                       1.200000
        cn-exp                         4.000000
        max-rad                        5.000000

      * Solvation model:               ALPB
        Solvent                        water
        Parameter file                 internal GFN2-xTB/ALPB
        Dielectric constant                8.0200E+01
        Reference state                gsolv [1 M gas/solution]
        Free energy shift                  1.0808E-03 Eh       6.7819E-01 kcal/mol
        Temperature                        2.9815E+02 K
        Density                            1.0000E+00 kg/L
        Solvent mass                       1.8000E+01 g/mol
        Interaction kernel             P16
        Born radius scaling (c1)           1.4744E+00
        Born radii integrator          GBOBC
        Born offset                        0.0000E+00 a0       0.0000E+00 AA
        H-bond correction              true
        Ion screening                  false
        Surface tension                    1.0000E-05 Eh       1.5569E+01 dyn/cm
        Grid points                               230 per atom

          ...................................................
          :                      SETUP                      :
          :.................................................:
          :  # basis functions                 366          :
          :  # atomic orbitals                 366          :
          :  # shells                          222          :
          :  # electrons                       408          :
          :  max. iterations                   250          :
          :  Hamiltonian                  GFN2-xTB          :
          :  restarted?                      false          :
          :  GBSA solvation                   true          :
          :  PC potential                    false          :
          :  electronic temp.          300.0000000     K    :
          :  accuracy                    1.0000000          :
          :  -> integral cutoff          0.2500000E+02      :
          :  -> integral neglect         0.1000000E-07      :
          :  -> SCF convergence          0.1000000E-05 Eh   :
          :  -> wf. convergence          0.1000000E-03 e    :
          :  Broyden damping             0.4000000          :
          :  net charge                          0          :
          :  unpaired electrons                  0          :
          ...................................................

 iter      E             dE          RMSdq      gap      omega  full diag
   1   -236.5761050 -0.236576E+03  0.426E+00    2.61       0.0  T
   2   -236.8370958 -0.260991E+00  0.231E+00    1.80       1.0  T
   3   -236.8297318  0.736401E-02  0.965E-01    1.66       1.0  T
   4   -236.8573395 -0.276077E-01  0.295E-01    1.38       1.0  T
   5   -236.8624510 -0.511157E-02  0.123E-01    1.37       1.0  T
   6   -236.8629760 -0.524955E-03  0.642E-02    1.38       1.0  T
   7   -236.8630861 -0.110118E-03  0.304E-02    1.38       1.0  T
   8   -236.8631285 -0.424181E-04  0.137E-02    1.38       1.0  T
   9   -236.8631360 -0.747216E-05  0.674E-03    1.38       1.2  T
  10   -236.8631372 -0.120257E-05  0.419E-03    1.37       1.9  T
  11   -236.8631380 -0.835506E-06  0.206E-03    1.37       4.0  T
  12   -236.8631382 -0.192242E-06  0.777E-04    1.37      10.5  T
  13   -236.8631382 -0.255406E-07  0.402E-04    1.37      20.3  T

   *** convergence criteria satisfied after 13 iterations ***

         #    Occupation            Energy/Eh            Energy/eV
      -------------------------------------------------------------
         1        2.0000           -0.7742326             -21.0679
       ...           ...                  ...                  ...
       198        2.0000           -0.4096893             -11.1482
       199        2.0000           -0.4067693             -11.0688
       200        2.0000           -0.4053215             -11.0294
       201        2.0000           -0.4007911             -10.9061
       202        2.0000           -0.3998430             -10.8803
       203        2.0000           -0.3868151             -10.5258
       204        2.0000           -0.3658730              -9.9559 (HOMO)
       205                         -0.3155336              -8.5861 (LUMO)
       206                         -0.2520484              -6.8586
       207                         -0.2395706              -6.5190
       208                         -0.2342530              -6.3743
       209                         -0.2310210              -6.2864
       ...                                ...                  ...
       366                          0.6913337              18.8121
      -------------------------------------------------------------
                  HL-Gap            0.0503394 Eh            1.3698 eV
             Fermi-level           -0.3407033 Eh           -9.2710 eV

 SCC (total)                   0 d,  0 h,  0 min,  0.272 sec
 SCC setup                      ...        0 min,  0.004 sec (  1.316%)
 Dispersion                     ...        0 min,  0.004 sec (  1.579%)
 classical contributions        ...        0 min,  0.000 sec (  0.079%)
 integral evaluation            ...        0 min,  0.015 sec (  5.651%)
 iterations                     ...        0 min,  0.207 sec ( 75.985%)
 molecular gradient             ...        0 min,  0.039 sec ( 14.527%)
 printout                       ...        0 min,  0.002 sec (  0.847%)

         :::::::::::::::::::::::::::::::::::::::::::::::::::::
         ::                     SUMMARY                     ::
         :::::::::::::::::::::::::::::::::::::::::::::::::::::
         :: total energy            -234.432049143040 Eh    ::
         :: total w/o Gsasa/hb      -234.399742332268 Eh    ::
         :: gradient norm              0.124665831896 Eh/a0 ::
         :: HOMO-LUMO gap              1.369804865779 eV    ::
         ::.................................................::
         :: SCC energy              -236.848403316452 Eh    ::
         :: -> isotropic ES            0.547072381375 Eh    ::
         :: -> anisotropic ES         -0.013262669486 Eh    ::
         :: -> anisotropic XC          0.021534838834 Eh    ::
         :: -> dispersion             -0.188784075895 Eh    ::
         :: -> Gsolv                  -0.086003236639 Eh    ::
         ::    -> Gelec               -0.053696425867 Eh    ::
         ::    -> Gsasa                0.006154604602 Eh    ::
         ::    -> Ghb                 -0.039542175072 Eh    ::
         ::    -> Gshift               0.001080759698 Eh    ::
         :: repulsion energy           2.416354173412 Eh    ::
         :: add. restraining           0.000000000000 Eh    ::
         :: total charge               0.000000000000 e     ::
         :::::::::::::::::::::::::::::::::::::::::::::::::::::

           -------------------------------------------------
          |                Property Printout                |
           -------------------------------------------------

    * Orbital Energies and Occupations

         #    Occupation            Energy/Eh            Energy/eV
      -------------------------------------------------------------
         1        2.0000           -0.7742326             -21.0679
       ...           ...                  ...                  ...
       192        2.0000           -0.4169820             -11.3467
       193        2.0000           -0.4157907             -11.3142
       194        2.0000           -0.4141318             -11.2691
       195        2.0000           -0.4130341             -11.2392
       196        2.0000           -0.4124543             -11.2235
       197        2.0000           -0.4110259             -11.1846
       198        2.0000           -0.4096893             -11.1482
       199        2.0000           -0.4067693             -11.0688
       200        2.0000           -0.4053215             -11.0294
       201        2.0000           -0.4007911             -10.9061
       202        2.0000           -0.3998430             -10.8803
       203        2.0000           -0.3868151             -10.5258
       204        2.0000           -0.3658730              -9.9559 (HOMO)
       205                         -0.3155336              -8.5861 (LUMO)
       206                         -0.2520484              -6.8586
       207                         -0.2395706              -6.5190
       208                         -0.2342530              -6.3743
       209                         -0.2310210              -6.2864
       210                         -0.2261672              -6.1543
       211                         -0.1623300              -4.4172
       212                         -0.1376680              -3.7461
       213                         -0.1099235              -2.9912
       214                         -0.0885055              -2.4084
       215                         -0.0813872              -2.2147
       ...                                ...                  ...
       366                          0.6913337              18.8121
      -------------------------------------------------------------
                  HL-Gap            0.0503394 Eh            1.3698 eV
             Fermi-level           -0.3407033 Eh           -9.2710 eV

     #   Z          covCN         q      C6AA      α(0)
     1   6 C        2.840     0.142    24.892     8.176
     2   6 C        2.975    -0.033    28.812     8.805
     3   6 C        2.964    -0.004    28.115     8.697
     4   6 C        2.927    -0.089    30.222     9.016
     5   6 C        2.836     0.147    24.807     8.162
     6   6 C        2.922    -0.099    30.503     9.057
     7   6 C        3.749     0.109    18.847     6.192
     8   6 C        3.722     0.100    19.040     6.232
     9   6 C        3.748     0.106    18.901     6.201
    10   6 C        3.745     0.099    19.007     6.219
    11   6 C        3.742     0.085    19.245     6.259
    12   8 O        1.696    -0.344    19.784     6.005
    13   6 C        3.681     0.079    19.469     6.319
    14   8 O        1.651    -0.492    22.732     6.436
    15   8 O        1.651    -0.495    22.792     6.445
    16   8 O        1.698    -0.326    19.448     5.954
    17   8 O        1.702    -0.289    18.805     5.855
    18   6 C        3.677     0.073    19.582     6.340
    19   8 O        1.654    -0.484    22.548     6.410
    20   6 C        3.632     0.245    17.152     5.962
    21   8 O        1.696    -0.365    20.164     6.063
    22   6 C        3.740     0.106    18.910     6.205
    23   6 C        3.724     0.100    19.041     6.231
    24   6 C        3.722     0.089    19.211     6.260
    25   6 C        3.744     0.089    19.176     6.247
    26   8 O        1.654    -0.492    22.713     6.434
    27   8 O        1.698    -0.326    19.452     5.955
    28   8 O        1.653    -0.499    22.861     6.454
    29   6 C        3.746     0.087    19.208     6.252
    30   8 O        1.704    -0.263    18.363     5.786
    31   6 C        2.759     0.369    20.746     7.459
    32   8 O        0.857    -0.455    22.814     6.404
    33   6 C        2.722     0.352    21.024     7.506
    34   6 C        2.896    -0.086    30.155     9.004
    35   8 O        0.857    -0.481    23.372     6.482
    36   6 C        2.901     0.003    27.955     8.669
    37   6 C        2.896    -0.050    29.236     8.865
    38   6 C        2.894    -0.006    28.178     8.703
    39   6 C        3.803    -0.082    22.055     6.686
    40   6 C        3.725     0.115    18.798     6.191
    41   6 C        2.894    -0.065    29.623     8.924
    42   8 O        1.651    -0.506    23.025     6.477
    43   6 C        2.895    -0.046    29.146     8.852
    44   6 C        2.897    -0.051    29.265     8.870
    45   6 C        2.894    -0.043    29.078     8.841
    46   6 C        3.805    -0.061    21.662     6.626
    47   6 C        3.801    -0.058    21.615     6.619
    48   6 C        3.801    -0.061    21.673     6.628
    49   6 C        3.799    -0.054    21.546     6.609
    50   6 C        3.751    -0.105    22.576     6.776
    51   8 O        1.656    -0.449    21.819     6.306
    52   8 O        1.657    -0.450    21.852     6.310
    53   6 C        3.640     0.237    17.241     5.972
    54   6 C        3.721     0.092    19.163     6.252
    55   6 C        3.724     0.097    19.076     6.237
    56   6 C        3.722     0.077    19.395     6.289
    57   6 C        3.742     0.096    19.064     6.229
    58   8 O        1.696    -0.376    20.368     6.093
    59   6 C        3.674     0.071    19.612     6.346
    60   8 O        1.653    -0.470    22.265     6.370
    61   8 O        1.654    -0.472    22.305     6.375
    62   8 O        1.653    -0.471    22.284     6.372
    63   8 O        1.653    -0.472    22.292     6.374
    64   6 C        3.803    -0.098    22.373     6.734
    65   6 C        3.751    -0.104    22.551     6.772
    66   6 C        3.800    -0.060    21.662     6.627
    67   6 C        3.801    -0.059    21.643     6.624
    68   6 C        3.801    -0.059    21.636     6.623
    69   6 C        3.800    -0.061    21.665     6.627
    70   6 C        3.801    -0.060    21.645     6.624
    71   6 C        3.800    -0.060    21.653     6.625
    72   6 C        3.800    -0.066    21.772     6.644
    73   1 H        0.926     0.063     2.161     2.299
    74   1 H        0.926     0.074     2.037     2.232
    75   1 H        0.924     0.032     2.565     2.504
    76   1 H        0.923     0.059     2.216     2.328
    77   1 H        0.924     0.040     2.455     2.450
    78   1 H        0.923     0.094     1.843     2.123
    79   1 H        0.924     0.055     2.255     2.348
    80   1 H        0.924     0.056     2.244     2.342
    81   1 H        0.924     0.025     2.666     2.553
    82   1 H        0.801     0.320     0.666     1.282
    83   1 H        0.802     0.337     0.620     1.237
    84   1 H        0.924     0.066     2.129     2.282
    85   1 H        0.924     0.051     2.305     2.374
    86   1 H        0.803     0.352     0.584     1.201
    87   1 H        0.924     0.014     2.829     2.630
    88   1 H        0.923     0.055     2.262     2.352
    89   1 H        0.923     0.054     2.276     2.359
    90   1 H        0.923     0.059     2.215     2.328
    91   1 H        0.924     0.092     1.863     2.135
    92   1 H        0.804     0.370     0.543     1.158
    93   1 H        0.803     0.376     0.532     1.146
    94   1 H        0.924     0.078     2.001     2.212
    95   1 H        0.924     0.058     2.217     2.329
    96   1 H        0.926     0.078     2.000     2.211
    97   1 H        0.926     0.076     2.016     2.220
    98   1 H        0.926     0.079     1.989     2.206
    99   1 H        0.926     0.059     2.214     2.327
   100   1 H        0.924     0.088     1.897     2.154
   101   1 H        0.924     0.077     2.013     2.219
   102   1 H        0.923     0.051     2.311     2.377
   103   1 H        0.926     0.058     2.226     2.333
   104   1 H        0.803     0.333     0.629     1.246
   105   1 H        0.926     0.035     2.519     2.482
   106   1 H        0.926     0.029     2.603     2.523
   107   1 H        0.926     0.059     2.207     2.323
   108   1 H        0.924     0.046     2.373     2.409
   109   1 H        0.924     0.036     2.505     2.475
   110   1 H        0.924     0.031     2.568     2.506
   111   1 H        0.924     0.033     2.538     2.491
   112   1 H        0.924     0.021     2.713     2.576
   113   1 H        0.924     0.031     2.575     2.509
   114   1 H        0.924     0.027     2.628     2.535
   115   1 H        0.924     0.034     2.526     2.485
   116   1 H        0.924     0.033     2.548     2.496
   117   1 H        0.924     0.039     2.469     2.457
   118   1 H        0.924     0.028     2.617     2.530
   119   1 H        0.804     0.382     0.520     1.132
   120   1 H        0.804     0.380     0.524     1.137
   121   1 H        0.923     0.013     2.845     2.638
   122   1 H        0.924     0.051     2.305     2.374
   123   1 H        0.923     0.057     2.231     2.336
   124   1 H        0.923     0.077     2.016     2.220
   125   1 H        0.924     0.018     2.767     2.601
   126   1 H        0.924     0.058     2.219     2.330
   127   1 H        0.924     0.081     1.973     2.197
   128   1 H        0.803     0.342     0.607     1.223
   129   1 H        0.804     0.367     0.549     1.164
   130   1 H        0.803     0.359     0.568     1.184
   131   1 H        0.802     0.317     0.673     1.289
   132   1 H        0.924     0.079     1.994     2.208
   133   1 H        0.924     0.094     1.839     2.121
   134   1 H        0.924     0.033     2.547     2.496
   135   1 H        0.924     0.036     2.506     2.475
   136   1 H        0.924     0.031     2.570     2.507
   137   1 H        0.924     0.035     2.516     2.480
   138   1 H        0.924     0.033     2.540     2.492
   139   1 H        0.924     0.028     2.618     2.530
   140   1 H        0.924     0.032     2.564     2.504
   141   1 H        0.924     0.027     2.636     2.539
   142   1 H        0.924     0.027     2.635     2.538
   143   1 H        0.924     0.034     2.536     2.491
   144   1 H        0.924     0.032     2.565     2.505
   145   1 H        0.924     0.064     2.149     2.292
   146   1 H        0.924     0.051     2.307     2.375
   147   1 H        0.924     0.020     2.731     2.585
   148   1 H        0.924     0.043     2.411     2.428
   149   1 H        0.924     0.040     2.444     2.445
   150   1 H        0.924     0.036     2.502     2.474

 Mol. C6AA /au·bohr⁶  :     200334.646356
 Mol. C8AA /au·bohr⁸  :    4462041.762985
 Mol. α(0) /au        :        665.849422


Wiberg/Mayer (AO) data.
largest (>0.10) Wiberg bond orders for each atom

 ---------------------------------------------------------------------------
     #   Z sym  total        # sym  WBO       # sym  WBO       # sym  WBO
 ---------------------------------------------------------------------------
     1   6 C    3.945 --     6 C    1.391     2 C    1.333    51 O    1.078
     2   6 C    3.976 --     3 C    1.393     1 C    1.333     7 C    0.992
     3   6 C    3.986 --     4 C    1.424     2 C    1.393    13 C    1.003
     4   6 C    3.981 --     3 C    1.424     5 C    1.363    73 H    0.962
     5   6 C    3.945 --     6 C    1.377     4 C    1.363    52 O    1.078
     6   6 C    3.978 --     1 C    1.391     5 C    1.377    74 H    0.961
     7   6 C    3.945 --     2 C    0.992    12 O    0.955     8 C    0.952
                            75 H    0.950
     8   6 C    3.949 --    15 O    0.986     9 C    0.968    76 H    0.954
                             7 C    0.952
     9   6 C    3.930 --    10 C    0.969     8 C    0.968    77 H    0.950
                            17 O    0.936
    10   6 C    3.932 --     9 C    0.969    16 O    0.961    11 C    0.958
                            78 H    0.946
    11   6 C    3.944 --    18 C    0.983    12 O    0.968    10 C    0.958
                            79 H    0.942
    12   8 O    2.059 --    11 C    0.968     7 C    0.955
    13   6 C    3.957 --     3 C    1.003    14 O    0.986    80 H    0.969
                            81 H    0.955
    14   8 O    1.923 --    13 C    0.986    82 H    0.849
    15   8 O    1.943 --     8 C    0.986    83 H    0.827
    16   8 O    2.090 --    20 C    0.983    10 C    0.961
    17   8 O    2.282 --    33 C    1.088     9 C    0.936    35 O    0.143
    18   6 C    3.959 --    19 O    1.010    11 C    0.983    84 H    0.967
                            85 H    0.966
    19   8 O    1.926 --    18 C    1.010    86 H    0.856
    20   6 C    3.922 --    16 O    0.983    25 C    0.954    21 O    0.953
                            87 H    0.939
    21   8 O    2.057 --    20 C    0.953    22 C    0.948
    22   6 C    3.937 --    29 C    0.987    23 C    0.971    88 H    0.952
                            21 O    0.948
    23   6 C    3.965 --    28 O    1.004    22 C    0.971    24 C    0.968
                            89 H    0.956
    24   6 C    3.959 --    26 O    0.999    23 C    0.968    25 C    0.962
                            90 H    0.947
    25   6 C    3.936 --    27 O    0.965    24 C    0.962    20 C    0.954
                            91 H    0.953
    26   8 O    1.925 --    24 C    0.999    92 H    0.845
    27   8 O    2.083 --    53 C    0.979    25 C    0.965
    28   8 O    1.913 --    23 C    1.004    93 H    0.836
    29   6 C    3.934 --    22 C    0.987    95 H    0.964    94 H    0.962
                            30 O    0.960
    30   8 O    2.295 --    31 C    1.107    29 C    0.960    32 O    0.161
    31   6 C    3.891 --    32 O    1.733    30 O    1.107    64 C    0.986
    32   8 O    2.003 --    31 C    1.733    30 O    0.161
    33   6 C    3.897 --    35 O    1.600    34 C    1.089    17 O    1.088
    34   6 C    3.974 --    36 C    1.702    33 C    1.089    96 H    0.953
    35   8 O    1.993 --    33 C    1.600    17 O    0.143
    36   6 C    3.971 --    34 C    1.702    37 C    1.156    97 H    0.958
    37   6 C    3.984 --    38 C    1.770    36 C    1.156    98 H    0.957
    38   6 C    3.978 --    37 C    1.770    39 C    1.052    99 H    0.950
    39   6 C    3.989 --    38 C    1.052   101 H    0.965    40 C    0.948
                           100 H    0.932
    40   6 C    3.950 --    41 C    1.009    42 O    0.989   102 H    0.953
                            39 C    0.948
    41   6 C    3.987 --    43 C    1.833    40 C    1.009   103 H    0.952
                            45 C    0.125
    42   8 O    1.925 --    40 C    0.989   104 H    0.849
    43   6 C    3.990 --    41 C    1.833    44 C    1.117   105 H    0.967
    44   6 C    3.990 --    45 C    1.829    43 C    1.117   106 H    0.966
    45   6 C    3.987 --    44 C    1.829    46 C    1.033   107 H    0.949
                            41 C    0.125
    46   6 C    3.997 --    45 C    1.033    47 C    0.991   109 H    0.971
                           108 H    0.957
    47   6 C    3.995 --    48 C    1.007    46 C    0.991   110 H    0.976
                           111 H    0.973
    48   6 C    3.996 --    49 C    1.008    47 C    1.007   112 H    0.970
                           113 H    0.963
    49   6 C    3.997 --    50 C    1.021    48 C    1.008   114 H    0.977
                           115 H    0.975
    50   6 C    3.996 --    49 C    1.021   116 H    0.987   117 H    0.986
                           118 H    0.982
    51   8 O    2.079 --     1 C    1.078   119 H    0.835
    52   8 O    2.074 --     5 C    1.078   120 H    0.838
    53   6 C    3.916 --    27 O    0.979    54 C    0.951    58 O    0.949
                           121 H    0.947
    54   6 C    3.961 --    62 O    1.002    55 C    0.967   122 H    0.955
                            53 C    0.951
    55   6 C    3.963 --    61 O    1.006    54 C    0.967    56 C    0.957
                           123 H    0.954
    56   6 C    3.959 --    60 O    1.006    57 C    0.964    55 C    0.957
                           124 H    0.957
    57   6 C    3.932 --    59 C    0.981    56 C    0.964   125 H    0.946
                            58 O    0.942
    58   8 O    2.058 --    53 C    0.949    57 C    0.942
    59   6 C    3.952 --    63 O    1.005    57 C    0.981   127 H    0.966
                           126 H    0.963
    60   8 O    1.952 --    56 C    1.006   128 H    0.861
    61   8 O    1.961 --    55 C    1.006   129 H    0.843
    62   8 O    1.945 --    54 C    1.002   130 H    0.853
    63   8 O    1.947 --    59 C    1.005   131 H    0.852
    64   6 C    3.984 --    31 C    0.986    70 C    0.980   132 H    0.971
                           133 H    0.951
    65   6 C    3.997 --    66 C    1.021   135 H    0.987   134 H    0.987
                           136 H    0.987
    66   6 C    3.995 --    65 C    1.021    67 C    1.008   137 H    0.974
                           138 H    0.967
    67   6 C    3.997 --    66 C    1.008    68 C    1.007   139 H    0.977
                           140 H    0.976
    68   6 C    3.996 --    69 C    1.008    67 C    1.007   141 H    0.974
                           142 H    0.973
    69   6 C    3.997 --    68 C    1.008    72 C    1.007   144 H    0.977
                           143 H    0.976
    70   6 C    3.989 --    71 C    1.007    64 C    0.980   146 H    0.976
                           145 H    0.972
    71   6 C    3.996 --    72 C    1.008    70 C    1.007   148 H    0.975
                           147 H    0.972
    72   6 C    3.996 --    71 C    1.008    69 C    1.007   149 H    0.976
                           150 H    0.973
    73   1 H    0.996 --     4 C    0.962
    74   1 H    0.994 --     6 C    0.961
    75   1 H    0.999 --     7 C    0.950
    76   1 H    0.996 --     8 C    0.954
    77   1 H    0.998 --     9 C    0.950
    78   1 H    0.991 --    10 C    0.946
    79   1 H    0.997 --    11 C    0.942
    80   1 H    0.996 --    13 C    0.969
    81   1 H    0.999 --    13 C    0.955
    82   1 H    0.898 --    14 O    0.849
    83   1 H    0.886 --    15 O    0.827
    84   1 H    0.995 --    18 C    0.967
    85   1 H    0.997 --    18 C    0.966
    86   1 H    0.876 --    19 O    0.856
    87   1 H    1.000 --    20 C    0.939
    88   1 H    0.997 --    22 C    0.952
    89   1 H    0.997 --    23 C    0.956
    90   1 H    0.997 --    24 C    0.947
    91   1 H    0.991 --    25 C    0.953
    92   1 H    0.863 --    26 O    0.845
    93   1 H    0.859 --    28 O    0.836
    94   1 H    0.994 --    29 C    0.962
    95   1 H    0.996 --    29 C    0.964
    96   1 H    0.994 --    34 C    0.953
    97   1 H    0.993 --    36 C    0.958
    98   1 H    0.993 --    37 C    0.957
    99   1 H    0.997 --    38 C    0.950
   100   1 H    0.988 --    39 C    0.932
   101   1 H    0.993 --    39 C    0.965
   102   1 H    0.996 --    40 C    0.953
   103   1 H    0.997 --    41 C    0.952
   104   1 H    0.889 --    42 O    0.849
   105   1 H    0.998 --    43 C    0.967
   106   1 H    0.999 --    44 C    0.966
   107   1 H    0.996 --    45 C    0.949
   108   1 H    0.997 --    46 C    0.957
   109   1 H    0.999 --    46 C    0.971
   110   1 H    0.998 --    47 C    0.976
   111   1 H    0.999 --    47 C    0.973
   112   1 H    1.000 --    48 C    0.970
   113   1 H    0.999 --    48 C    0.963
   114   1 H    0.999 --    49 C    0.977
   115   1 H    0.999 --    49 C    0.975
   116   1 H    0.999 --    50 C    0.987
   117   1 H    0.998 --    50 C    0.986
   118   1 H    0.999 --    50 C    0.982
   119   1 H    0.854 --    51 O    0.835
   120   1 H    0.855 --    52 O    0.838
   121   1 H    1.000 --    53 C    0.947
   122   1 H    0.997 --    54 C    0.955
   123   1 H    0.997 --    55 C    0.954
   124   1 H    0.994 --    56 C    0.957
   125   1 H    1.000 --    57 C    0.946
   126   1 H    0.996 --    59 C    0.963
   127   1 H    0.993 --    59 C    0.966
   128   1 H    0.883 --    60 O    0.861
   129   1 H    0.865 --    61 O    0.843
   130   1 H    0.871 --    62 O    0.853
   131   1 H    0.900 --    63 O    0.852
   132   1 H    0.994 --    64 C    0.971
   133   1 H    0.991 --    64 C    0.951
   134   1 H    0.999 --    65 C    0.987
   135   1 H    0.999 --    65 C    0.987
   136   1 H    0.999 --    65 C    0.987
   137   1 H    0.999 --    66 C    0.974
   138   1 H    0.999 --    66 C    0.967
   139   1 H    0.999 --    67 C    0.977
   140   1 H    0.999 --    67 C    0.976
   141   1 H    0.999 --    68 C    0.974
   142   1 H    0.999 --    68 C    0.973
   143   1 H    0.999 --    69 C    0.976
   144   1 H    0.999 --    69 C    0.977
   145   1 H    0.995 --    70 C    0.972
   146   1 H    0.997 --    70 C    0.976
   147   1 H    1.000 --    71 C    0.972
   148   1 H    0.998 --    71 C    0.975
   149   1 H    0.998 --    72 C    0.976
   150   1 H    0.999 --    72 C    0.973
 ---------------------------------------------------------------------------

Topologies differ in total number of bonds
Writing topology from bond orders to xtbtopo.mol

molecular dipole:
                 x           y           z       tot (Debye)
 q only:        1.974       0.758       0.933
   full:        1.855       0.693       0.814       5.441
molecular quadrupole (traceless):
                xx          xy          yy          xz          yz          zz
 q only:      -14.003       8.866      30.248     -11.216     -19.963     -16.245
  q+dip:      -27.419       8.882      38.549     -17.110     -26.913     -11.130
   full:      -26.799      10.432      37.095     -17.235     -28.759     -10.296


           -------------------------------------------------
          | TOTAL ENERGY             -234.432049143040 Eh   |
          | GRADIENT NORM               0.124665831896 Eh/α |
          | HOMO-LUMO GAP               1.369804865779 eV   |
           -------------------------------------------------

------------------------------------------------------------------------
 * finished run on 2026/06/19 at 18:52:18.642     
------------------------------------------------------------------------
 total:
 * wall-time:     0 d,  0 h,  0 min,  0.342 sec
 *  cpu-time:     0 d,  0 h,  0 min,  4.989 sec
 * ratio c/w:    14.590 speedup
 SCF:
 * wall-time:     0 d,  0 h,  0 min,  0.273 sec
 *  cpu-time:     0 d,  0 h,  0 min,  4.255 sec
 * ratio c/w:    15.614 speedup

normal termination of xtb
