      -----------------------------------------------------------      
     |                   =====================                   |     
     |                           x T B                           |     
     |                   =====================                   |     
     |                         S. Grimme                         |     
     |          Mulliken Center for Theoretical Chemistry        |     
     |                    University of Bonn                     |     
      -----------------------------------------------------------      

   * xtb version 6.7.1 (edcfbbe) compiled by 'albert@albert-system' on 2024-07-22

   xtb is free software: you can redistribute it and/or modify it under
   the terms of the GNU Lesser General Public License as published by
   the Free Software Foundation, either version 3 of the License, or
   (at your option) any later version.
   
   xtb is distributed in the hope that it will be useful,
   but WITHOUT ANY WARRANTY; without even the implied warranty of
   MERCHANTABILITY or FITNESS FOR A PARTICULAR PURPOSE.  See the
   GNU Lesser General Public License for more details.
   
   Cite this work as:
   * C. Bannwarth, E. Caldeweyher, S. Ehlert, A. Hansen, P. Pracht,
     J. Seibert, S. Spicher, S. Grimme, WIREs Comput. Mol. Sci., 2020, 11,
     e01493. DOI: 10.1002/wcms.1493
   
   for GFN2-xTB:
   * C. Bannwarth, S. Ehlert and S. Grimme., J. Chem. Theory Comput., 2019,
     15, 1652-1671. DOI: 10.1021/acs.jctc.8b01176
   for GFN1-xTB:
   * S. Grimme, C. Bannwarth, P. Shushkov, J. Chem. Theory Comput., 2017,
     13, 1989-2009. DOI: 10.1021/acs.jctc.7b00118
   for GFN0-xTB:
   * P. Pracht, E. Caldeweyher, S. Ehlert, S. Grimme, ChemRxiv, 2019, preprint.
     DOI: 10.26434/chemrxiv.8326202.v1
   for GFN-FF:
   * S. Spicher and S. Grimme, Angew. Chem. Int. Ed., 2020, 59, 15665-15673.
     DOI: 10.1002/anie.202004239
   
   for ALPB and GBSA implicit solvation:
   * S. Ehlert, M. Stahn, S. Spicher, S. Grimme, J. Chem. Theory Comput.,
     2021, 17, 4250-4261. DOI: 10.1021/acs.jctc.1c00471
   
   for ddCOSMO and CPCM-X implicit solvation:
   * M. Stahn, S. Ehlert, S. Grimme, J. Phys. Chem. A,
     2023, XX, XXXX-XXXX. DOI: 10.1021/acs.jpca.3c04382
   
   for DFT-D4:
   * E. Caldeweyher, C. Bannwarth and S. Grimme, J. Chem. Phys., 2017,
     147, 034112. DOI: 10.1063/1.4993215
   * E. Caldeweyher, S. Ehlert, A. Hansen, H. Neugebauer, S. Spicher,
     C. Bannwarth and S. Grimme, J. Chem. Phys., 2019, 150, 154122.
     DOI: 10.1063/1.5090222
   * E. Caldeweyher, J.-M. Mewes, S. Ehlert and S. Grimme, Phys. Chem. Chem. Phys.
     2020, 22, 8499-8512. DOI: 10.1039/D0CP00502A
   
   for sTDA-xTB:
   * S. Grimme and C. Bannwarth, J. Chem. Phys., 2016, 145, 054103.
     DOI: 10.1063/1.4959605
   
   in the mass-spec context:
   * V. Asgeirsson, C. Bauer and S. Grimme, Chem. Sci., 2017, 8, 4879.
     DOI: 10.1039/c7sc00601b
   * J. Koopman and S. Grimme, ACS Omega 2019, 4, 12, 15120-15133.
     DOI: 10.1021/acsomega.9b02011
   
   for metadynamics refer to:
   * S. Grimme, J. Chem. Theory Comput., 2019, 155, 2847-2862
     DOI: 10.1021/acs.jctc.9b00143
   
   for SPH calculations refer to:
   * S. Spicher and S. Grimme, J. Chem. Theory Comput., 2021, 17, 1701-1714
     DOI: 10.1021/acs.jctc.0c01306
   
   for ONIOM refer to:
   * C. Plett, A. Katbashev, S. Ehlert, S. Grimme, M. Bursch,
     Phys. Chem. Chem. Phys., 2023, 25, 17860-17868. DOI: 10.1039/D3CP02178E
   
   for DIPRO refer to:
   * J. Kohn, N. Gildemeister, S. Grimme, D. Fazzi, A. Hansen,
     J. Chem. Phys., 2023, just accepted.
   
   for PTB refer to:
   * S. Grimme, M. Mueller, A. Hansen, J. Chem. Phys., 2023, 158, 124111.
     DOI: 10.1063/5.0137838
   
   with help from (in alphabetical order)
   P. Atkinson, C. Bannwarth, F. Bohle, G. Brandenburg, E. Caldeweyher
   M. Checinski, S. Dohm, S. Ehlert, S. Ehrlich, I. Gerasimov, C. Hölzer
   A. Katbashev, J. Kohn, J. Koopman, C. Lavigne, S. Lehtola, F. März, M. Müller,
   F. Musil, H. Neugebauer, J. Pisarek, C. Plett, P. Pracht, F. Pultar,
   J. Seibert, P. Shushkov, S. Spicher, M. Stahn, M. Steiner, T. Strunk,
   J. Stückrath, T. Rose, and J. Unsleber
   
 * started run on 2026/06/19 at 18:53:11.121     
   ID    Z sym.   atoms
    1    6 C      1-11, 13, 18, 20, 22-25, 29, 31, 33, 34, 36-41, 43-50,
                  53-57, 59, 64-75
    2    8 O      12, 14-17, 19, 21, 26-28, 30, 32, 35, 42, 51, 52, 58,
                  60-63, 76
    3    1 H      77-144

           -------------------------------------------------
          |                Calculation Setup                |
           -------------------------------------------------

          program call               : xtb PAPU-0091/conf03.xyz --gfn 2 --alpb octanol --chrg 0 --uhf 0 --namespace PAPU-0091/conf03_octanol
          hostname                   : cpu10
          calculation namespace      : PAPU-0091/conf03_octanol
          coordinate file            : PAPU-0091/conf03.xyz
          omp threads                :                    16


           -------------------------------------------------
          |                 G F N 2 - x T B                 |
           -------------------------------------------------

        Reference                      10.1021/acs.jctc.8b01176
      * Hamiltonian:
        H0-scaling (s, p, d)           1.850000    2.230000    2.230000
        zeta-weighting                 0.500000
      * Dispersion:
        s8                             2.700000
        a1                             0.520000
        a2                             5.000000
        s9                             5.000000
      * Repulsion:
        kExp                           1.500000    1.000000
        rExp                           1.000000
      * Coulomb:
        alpha                          2.000000
        third order                    shell-resolved
        anisotropic                    true
        a3                             3.000000
        a5                             4.000000
        cn-shift                       1.200000
        cn-exp                         4.000000
        max-rad                        5.000000

      * Solvation model:               ALPB
        Solvent                        octanol
        Parameter file                 internal GFN2-xTB/ALPB
        Dielectric constant                9.8629E+00
        Reference state                gsolv [1 M gas/solution]
        Free energy shift                  2.3397E-03 Eh       1.4682E+00 kcal/mol
        Temperature                        2.9815E+02 K
        Density                            8.3000E-01 kg/L
        Solvent mass                       1.3023E+02 g/mol
        Interaction kernel             P16
        Born radius scaling (c1)           1.5898E+00
        Born radii integrator          GBOBC
        Born offset                        0.0000E+00 a0       0.0000E+00 AA
        H-bond correction              true
        Ion screening                  false
        Surface tension                    1.0000E-05 Eh       1.5569E+01 dyn/cm
        Grid points                               230 per atom

          ...................................................
          :                      SETUP                      :
          :.................................................:
          :  # basis functions                 372          :
          :  # atomic orbitals                 372          :
          :  # shells                          220          :
          :  # electrons                       416          :
          :  max. iterations                   250          :
          :  Hamiltonian                  GFN2-xTB          :
          :  restarted?                      false          :
          :  GBSA solvation                   true          :
          :  PC potential                    false          :
          :  electronic temp.          300.0000000     K    :
          :  accuracy                    1.0000000          :
          :  -> integral cutoff          0.2500000E+02      :
          :  -> integral neglect         0.1000000E-07      :
          :  -> SCF convergence          0.1000000E-05 Eh   :
          :  -> wf. convergence          0.1000000E-03 e    :
          :  Broyden damping             0.4000000          :
          :  net charge                          0          :
          :  unpaired electrons                  0          :
          ...................................................

 iter      E             dE          RMSdq      gap      omega  full diag
   1   -242.1998763 -0.242200E+03  0.443E+00    2.40       0.0  T
   2   -242.4257359 -0.225860E+00  0.245E+00    1.62       1.0  T
   3   -242.4048807  0.208552E-01  0.107E+00    1.57       1.0  T
   4   -242.4480878 -0.432070E-01  0.313E-01    1.37       1.0  T
   5   -242.4546093 -0.652151E-02  0.133E-01    1.34       1.0  T
   6   -242.4555460 -0.936668E-03  0.625E-02    1.35       1.0  T
   7   -242.4556640 -0.118092E-03  0.269E-02    1.36       1.0  T
   8   -242.4556896 -0.255880E-04  0.117E-02    1.35       1.0  T
   9   -242.4556954 -0.576518E-05  0.576E-03    1.35       1.4  T
  10   -242.4556973 -0.187474E-05  0.249E-03    1.35       3.3  T
  11   -242.4556975 -0.200474E-06  0.126E-03    1.35       6.6  T
  12   -242.4556975 -0.324975E-07  0.586E-04    1.35      14.2  T
  13   -242.4556975 -0.175676E-07  0.253E-04    1.35      33.0  T

   *** convergence criteria satisfied after 13 iterations ***

         #    Occupation            Energy/Eh            Energy/eV
      -------------------------------------------------------------
         1        2.0000           -0.7727878             -21.0286
       ...           ...                  ...                  ...
       202        2.0000           -0.4082666             -11.1095
       203        2.0000           -0.4074056             -11.0861
       204        2.0000           -0.4055620             -11.0359
       205        2.0000           -0.4031372             -10.9699
       206        2.0000           -0.3938037             -10.7159
       207        2.0000           -0.3877557             -10.5514
       208        2.0000           -0.3648533              -9.9282 (HOMO)
       209                         -0.3152445              -8.5782 (LUMO)
       210                         -0.2938770              -7.9968
       211                         -0.2430636              -6.6141
       212                         -0.2411670              -6.5625
       213                         -0.2360944              -6.4245
       ...                                ...                  ...
       372                          0.6888007              18.7432
      -------------------------------------------------------------
                  HL-Gap            0.0496088 Eh            1.3499 eV
             Fermi-level           -0.3400489 Eh           -9.2532 eV

 SCC (total)                   0 d,  0 h,  0 min,  0.266 sec
 SCC setup                      ...        0 min,  0.004 sec (  1.423%)
 Dispersion                     ...        0 min,  0.005 sec (  1.776%)
 classical contributions        ...        0 min,  0.000 sec (  0.060%)
 integral evaluation            ...        0 min,  0.011 sec (  4.216%)
 iterations                     ...        0 min,  0.204 sec ( 76.725%)
 molecular gradient             ...        0 min,  0.040 sec ( 14.908%)
 printout                       ...        0 min,  0.002 sec (  0.875%)

         :::::::::::::::::::::::::::::::::::::::::::::::::::::
         ::                     SUMMARY                     ::
         :::::::::::::::::::::::::::::::::::::::::::::::::::::
         :: total energy            -239.835456248779 Eh    ::
         :: total w/o Gsasa/hb      -239.758114103040 Eh    ::
         :: gradient norm              0.121210396079 Eh/a0 ::
         :: HOMO-LUMO gap              1.349924947595 eV    ::
         ::.................................................::
         :: SCC energy              -242.439748758359 Eh    ::
         :: -> isotropic ES            0.552351336046 Eh    ::
         :: -> anisotropic ES         -0.032842369966 Eh    ::
         :: -> anisotropic XC          0.018989058827 Eh    ::
         :: -> dispersion             -0.197191205098 Eh    ::
         :: -> Gsolv                  -0.108902039410 Eh    ::
         ::    -> Gelec               -0.031559893671 Eh    ::
         ::    -> Gsasa               -0.030591153272 Eh    ::
         ::    -> Ghb                 -0.049090661843 Eh    ::
         ::    -> Gshift               0.002339669376 Eh    ::
         :: repulsion energy           2.604292509580 Eh    ::
         :: add. restraining           0.000000000000 Eh    ::
         :: total charge              -0.000000000000 e     ::
         :::::::::::::::::::::::::::::::::::::::::::::::::::::

           -------------------------------------------------
          |                Property Printout                |
           -------------------------------------------------

    * Orbital Energies and Occupations

         #    Occupation            Energy/Eh            Energy/eV
      -------------------------------------------------------------
         1        2.0000           -0.7727878             -21.0286
       ...           ...                  ...                  ...
       196        2.0000           -0.4203761             -11.4390
       197        2.0000           -0.4188960             -11.3987
       198        2.0000           -0.4174923             -11.3605
       199        2.0000           -0.4165217             -11.3341
       200        2.0000           -0.4159734             -11.3192
       201        2.0000           -0.4125362             -11.2257
       202        2.0000           -0.4082666             -11.1095
       203        2.0000           -0.4074056             -11.0861
       204        2.0000           -0.4055620             -11.0359
       205        2.0000           -0.4031372             -10.9699
       206        2.0000           -0.3938037             -10.7159
       207        2.0000           -0.3877557             -10.5514
       208        2.0000           -0.3648533              -9.9282 (HOMO)
       209                         -0.3152445              -8.5782 (LUMO)
       210                         -0.2938770              -7.9968
       211                         -0.2430636              -6.6141
       212                         -0.2411670              -6.5625
       213                         -0.2360944              -6.4245
       214                         -0.2348836              -6.3915
       215                         -0.2341762              -6.3723
       216                         -0.2318420              -6.3087
       217                         -0.2307240              -6.2783
       218                         -0.1931737              -5.2565
       219                         -0.1644065              -4.4737
       ...                                ...                  ...
       372                          0.6888007              18.7432
      -------------------------------------------------------------
                  HL-Gap            0.0496088 Eh            1.3499 eV
             Fermi-level           -0.3400489 Eh           -9.2532 eV

     #   Z          covCN         q      C6AA      α(0)
     1   6 C        2.841     0.146    24.822     8.165
     2   6 C        2.972    -0.052    29.278     8.876
     3   6 C        2.964     0.002    27.980     8.676
     4   6 C        2.927    -0.078    29.950     8.975
     5   6 C        2.837     0.153    24.670     8.140
     6   6 C        2.920    -0.103    30.594     9.070
     7   6 C        3.751     0.096    19.054     6.225
     8   6 C        3.722     0.095    19.121     6.245
     9   6 C        3.773     0.097    19.011     6.213
    10   6 C        3.742     0.088    19.188     6.249
    11   6 C        3.744     0.079    19.328     6.272
    12   8 O        1.694    -0.357    20.024     6.041
    13   6 C        3.680     0.076    19.510     6.326
    14   8 O        1.652    -0.496    22.813     6.448
    15   8 O        1.651    -0.484    22.545     6.410
    16   8 O        1.698    -0.332    19.558     5.971
    17   8 O        1.703    -0.286    18.750     5.846
    18   6 C        3.675     0.069    19.644     6.351
    19   8 O        1.654    -0.475    22.356     6.383
    20   6 C        3.638     0.249    17.073     5.944
    21   8 O        1.695    -0.357    20.022     6.041
    22   6 C        3.743     0.111    18.824     6.190
    23   6 C        3.723     0.092    19.156     6.250
    24   6 C        3.725     0.086    19.254     6.266
    25   6 C        3.752     0.085    19.230     6.253
    26   8 O        1.654    -0.478    22.431     6.394
    27   8 O        1.699    -0.322    19.389     5.945
    28   8 O        1.653    -0.483    22.537     6.409
    29   6 C        3.741     0.068    19.517     6.303
    30   8 O        1.703    -0.299    18.977     5.882
    31   6 C        2.764     0.349    21.082     7.519
    32   8 O        0.857    -0.434    22.364     6.340
    33   6 C        2.746     0.360    20.892     7.484
    34   6 C        2.897    -0.097    30.431     9.045
    35   8 O        0.857    -0.479    23.325     6.475
    36   6 C        2.904    -0.002    28.081     8.689
    37   6 C        2.899    -0.053    29.305     8.876
    38   6 C        2.896    -0.011    28.277     8.719
    39   6 C        3.806    -0.085    22.107     6.693
    40   6 C        3.726     0.118    18.752     6.183
    41   6 C        2.895    -0.063    29.577     8.917
    42   8 O        1.651    -0.494    22.773     6.442
    43   6 C        2.897    -0.038    28.933     8.819
    44   6 C        2.898    -0.061    29.513     8.907
    45   6 C        2.894    -0.037    28.927     8.818
    46   6 C        3.805    -0.063    21.715     6.634
    47   6 C        3.800    -0.062    21.687     6.630
    48   6 C        3.800    -0.062    21.685     6.630
    49   6 C        3.799    -0.055    21.562     6.612
    50   6 C        3.751    -0.109    22.654     6.788
    51   8 O        1.656    -0.431    21.459     6.253
    52   8 O        1.657    -0.430    21.441     6.251
    53   6 C        3.649     0.236    17.214     5.960
    54   6 C        3.723     0.084    19.285     6.271
    55   6 C        3.724     0.095    19.106     6.242
    56   6 C        3.722     0.088    19.222     6.261
    57   6 C        3.743     0.104    18.943     6.209
    58   8 O        1.695    -0.355    19.983     6.035
    59   6 C        3.675     0.070    19.634     6.349
    60   8 O        1.653    -0.470    22.248     6.367
    61   8 O        1.654    -0.477    22.407     6.390
    62   8 O        1.653    -0.482    22.517     6.406
    63   8 O        1.652    -0.462    22.089     6.344
    64   6 C        2.974    -0.026    28.637     8.778
    65   6 C        2.925    -0.022    28.551     8.763
    66   6 C        2.926    -0.033    28.830     8.805
    67   6 C        2.975     0.025    27.435     8.592
    68   6 C        2.926    -0.034    28.856     8.809
    69   6 C        2.924    -0.018    28.461     8.749
    70   6 C        2.975    -0.001    28.044     8.687
    71   6 C        2.923    -0.037    28.925     8.820
    72   6 C        2.918    -0.073    29.831     8.956
    73   6 C        2.841     0.141    24.921     8.181
    74   6 C        2.920    -0.057    29.422     8.895
    75   6 C        2.924    -0.035    28.874     8.812
    76   8 O        1.657    -0.451    21.857     6.311
    77   1 H        0.926     0.078     2.001     2.212
    78   1 H        0.926     0.078     2.001     2.212
    79   1 H        0.924     0.036     2.505     2.475
    80   1 H        0.923     0.059     2.207     2.323
    81   1 H        0.924     0.061     2.186     2.312
    82   1 H        0.923     0.077     2.006     2.215
    83   1 H        0.924     0.065     2.145     2.290
    84   1 H        0.924     0.032     2.557     2.501
    85   1 H        0.924     0.053     2.277     2.360
    86   1 H        0.802     0.332     0.633     1.250
    87   1 H        0.802     0.343     0.606     1.223
    88   1 H        0.924     0.047     2.353     2.399
    89   1 H        0.924     0.070     2.086     2.259
    90   1 H        0.804     0.351     0.585     1.202
    91   1 H        0.923     0.008     2.918     2.672
    92   1 H        0.923     0.031     2.575     2.510
    93   1 H        0.923     0.056     2.247     2.344
    94   1 H        0.924     0.056     2.246     2.344
    95   1 H        0.923     0.088     1.902     2.156
    96   1 H        0.804     0.360     0.565     1.181
    97   1 H        0.803     0.368     0.547     1.162
    98   1 H        0.924     0.094     1.841     2.122
    99   1 H        0.924     0.089     1.888     2.149
   100   1 H        0.926     0.082     1.958     2.188
   101   1 H        0.926     0.074     2.045     2.236
   102   1 H        0.926     0.072     2.065     2.247
   103   1 H        0.926     0.066     2.125     2.280
   104   1 H        0.924     0.067     2.115     2.274
   105   1 H        0.924     0.082     1.954     2.186
   106   1 H        0.923     0.037     2.494     2.470
   107   1 H        0.926     0.036     2.506     2.476
   108   1 H        0.803     0.328     0.642     1.259
   109   1 H        0.926     0.054     2.267     2.354
   110   1 H        0.926     0.056     2.242     2.342
   111   1 H        0.926     0.036     2.505     2.475
   112   1 H        0.924     0.037     2.484     2.465
   113   1 H        0.924     0.047     2.355     2.400
   114   1 H        0.924     0.039     2.459     2.452
   115   1 H        0.924     0.031     2.573     2.509
   116   1 H        0.924     0.032     2.559     2.502
   117   1 H        0.924     0.034     2.526     2.486
   118   1 H        0.924     0.027     2.634     2.538
   119   1 H        0.924     0.026     2.645     2.543
   120   1 H        0.924     0.039     2.463     2.454
   121   1 H        0.924     0.030     2.585     2.514
   122   1 H        0.924     0.040     2.450     2.448
   123   1 H        0.803     0.347     0.595     1.212
   124   1 H        0.804     0.363     0.560     1.175
   125   1 H        0.923     0.004     2.982     2.701
   126   1 H        0.923     0.061     2.191     2.315
   127   1 H        0.923     0.030     2.583     2.514
   128   1 H        0.923     0.047     2.356     2.400
   129   1 H        0.924     0.004     2.993     2.706
   130   1 H        0.924     0.096     1.822     2.111
   131   1 H        0.924     0.047     2.356     2.400
   132   1 H        0.803     0.365     0.554     1.170
   133   1 H        0.804     0.368     0.547     1.162
   134   1 H        0.804     0.358     0.571     1.187
   135   1 H        0.801     0.307     0.702     1.316
   136   1 H        0.926     0.051     2.311     2.377
   137   1 H        0.926     0.055     2.252     2.347
   138   1 H        0.926     0.069     2.093     2.262
   139   1 H        0.926     0.069     2.098     2.265
   140   1 H        0.926     0.051     2.306     2.375
   141   1 H        0.926     0.049     2.327     2.385
   142   1 H        0.926     0.075     2.035     2.231
   143   1 H        0.926     0.057     2.229     2.335
   144   1 H        0.804     0.357     0.573     1.189

 Mol. C6AA /au·bohr⁶  :     208916.661190
 Mol. C8AA /au·bohr⁸  :    4802759.808939
 Mol. α(0) /au        :        690.579406


Wiberg/Mayer (AO) data.
largest (>0.10) Wiberg bond orders for each atom

 ---------------------------------------------------------------------------
     #   Z sym  total        # sym  WBO       # sym  WBO       # sym  WBO
 ---------------------------------------------------------------------------
     1   6 C    3.944 --     6 C    1.388     2 C    1.333    51 O    1.078
     2   6 C    3.970 --     3 C    1.385     1 C    1.333     7 C    0.994
     3   6 C    3.986 --     4 C    1.431     2 C    1.385    13 C    1.003
     4   6 C    3.982 --     3 C    1.431     5 C    1.357    77 H    0.962
     5   6 C    3.945 --     6 C    1.380     4 C    1.357    52 O    1.081
     6   6 C    3.977 --     1 C    1.388     5 C    1.380    78 H    0.961
     7   6 C    3.938 --     2 C    0.994    79 H    0.950     8 C    0.948
                            12 O    0.946
     8   6 C    3.958 --    15 O    1.009    80 H    0.959     9 C    0.956
                             7 C    0.948
     9   6 C    3.927 --    10 C    0.966     8 C    0.956    17 O    0.946
                            81 H    0.941
    10   6 C    3.932 --     9 C    0.966    16 O    0.960    11 C    0.958
                            82 H    0.955
    11   6 C    3.939 --    18 C    0.982    12 O    0.960    10 C    0.958
                            83 H    0.942
    12   8 O    2.064 --    11 C    0.960     7 C    0.946
    13   6 C    3.949 --     3 C    1.003    14 O    0.974    85 H    0.967
                            84 H    0.960
    14   8 O    1.946 --    13 C    0.974    86 H    0.845
    15   8 O    1.938 --     8 C    1.009    87 H    0.830
    16   8 O    2.084 --    20 C    0.981    10 C    0.960
    17   8 O    2.274 --    33 C    1.092     9 C    0.946    35 O    0.145
    18   6 C    3.959 --    19 O    1.012    11 C    0.982    89 H    0.966
                            88 H    0.966
    19   8 O    1.931 --    18 C    1.012    90 H    0.860
    20   6 C    3.926 --    16 O    0.981    25 C    0.956    21 O    0.955
                            91 H    0.940
    21   8 O    2.061 --    20 C    0.955    22 C    0.948
    22   6 C    3.938 --    29 C    0.978    23 C    0.970    92 H    0.953
                            21 O    0.948
    23   6 C    3.966 --    28 O    1.007    22 C    0.970    24 C    0.967
                            93 H    0.953
    24   6 C    3.960 --    26 O    1.001    23 C    0.967    25 C    0.964
                            94 H    0.943
    25   6 C    3.938 --    27 O    0.966    24 C    0.964    20 C    0.956
                            95 H    0.952
    26   8 O    1.933 --    24 C    1.001    96 H    0.851
    27   8 O    2.094 --    53 C    0.983    25 C    0.966
    28   8 O    1.921 --    23 C    1.007    97 H    0.842
    29   6 C    3.924 --    22 C    0.978    99 H    0.964    98 H    0.959
                            30 O    0.958
    30   8 O    2.243 --    31 C    1.040    29 C    0.958    32 O    0.135
    31   6 C    3.892 --    32 O    1.718    30 O    1.040    64 C    1.034
    32   8 O    2.016 --    31 C    1.718    30 O    0.135
    33   6 C    3.898 --    35 O    1.632    17 O    1.092    34 C    1.072
    34   6 C    3.967 --    36 C    1.711    33 C    1.072   100 H    0.959
                            38 C    0.114
    35   8 O    1.995 --    33 C    1.632    17 O    0.145
    36   6 C    3.972 --    34 C    1.711    37 C    1.163   101 H    0.952
    37   6 C    3.985 --    38 C    1.772    36 C    1.163   102 H    0.958
    38   6 C    3.971 --    37 C    1.772    39 C    1.046   103 H    0.957
                            34 C    0.114
    39   6 C    3.987 --    38 C    1.046   104 H    0.966    40 C    0.966
                           105 H    0.937
    40   6 C    3.952 --    41 C    1.007    42 O    0.983    39 C    0.966
                           106 H    0.943
    41   6 C    3.980 --    43 C    1.836    40 C    1.007   107 H    0.963
                            45 C    0.126
    42   8 O    1.923 --    40 C    0.983   108 H    0.855
    43   6 C    3.989 --    41 C    1.836    44 C    1.121   109 H    0.960
    44   6 C    3.988 --    45 C    1.834    43 C    1.121   110 H    0.950
    45   6 C    3.982 --    44 C    1.834    46 C    1.027   111 H    0.967
                            41 C    0.126
    46   6 C    3.996 --    45 C    1.027    47 C    0.990   112 H    0.979
                           113 H    0.960
    47   6 C    3.990 --    48 C    1.008    46 C    0.990   115 H    0.976
                           114 H    0.970
    48   6 C    3.995 --    47 C    1.008    49 C    1.007   117 H    0.977
                           116 H    0.972
    49   6 C    3.997 --    50 C    1.020    48 C    1.007   118 H    0.978
                           119 H    0.968
    50   6 C    3.994 --    49 C    1.020   120 H    0.987   122 H    0.984
                           121 H    0.979
    51   8 O    2.090 --     1 C    1.078   123 H    0.839
    52   8 O    2.091 --     5 C    1.081   124 H    0.850
    53   6 C    3.923 --    27 O    0.983    54 C    0.956    58 O    0.955
                           125 H    0.943
    54   6 C    3.959 --    62 O    1.000    55 C    0.970    53 C    0.956
                           126 H    0.955
    55   6 C    3.966 --    61 O    1.003    54 C    0.970    56 C    0.968
                           127 H    0.959
    56   6 C    3.968 --    60 O    1.006    55 C    0.968    57 C    0.966
                           128 H    0.955
    57   6 C    3.937 --    59 C    0.981    56 C    0.966    58 O    0.950
                           129 H    0.945
    58   8 O    2.060 --    53 C    0.955    57 C    0.950
    59   6 C    3.949 --    63 O    1.007    57 C    0.981   131 H    0.958
                           130 H    0.953
    60   8 O    1.942 --    56 C    1.006   132 H    0.841
    61   8 O    1.934 --    55 C    1.003   133 H    0.847
    62   8 O    1.926 --    54 C    1.000   134 H    0.852
    63   8 O    1.947 --    59 C    1.007   135 H    0.859
    64   6 C    3.973 --    65 C    1.363    69 C    1.359    31 C    1.034
    65   6 C    3.987 --    66 C    1.470    64 C    1.363   136 H    0.960
    66   6 C    3.987 --    65 C    1.470    67 C    1.371   137 H    0.962
    67   6 C    3.984 --    66 C    1.371    68 C    1.363    70 C    1.065
    68   6 C    3.985 --    69 C    1.482    67 C    1.363   138 H    0.962
    69   6 C    3.984 --    68 C    1.482    64 C    1.359   139 H    0.963
    70   6 C    3.987 --    71 C    1.374    75 C    1.367    67 C    1.065
    71   6 C    3.987 --    72 C    1.469    70 C    1.374   140 H    0.965
                            74 C    0.100
    72   6 C    3.986 --    71 C    1.469    73 C    1.367   141 H    0.965
    73   6 C    3.927 --    72 C    1.367    74 C    1.358    76 O    1.055
    74   6 C    3.987 --    75 C    1.476    73 C    1.358   142 H    0.961
                            71 C    0.100
    75   6 C    3.986 --    74 C    1.476    70 C    1.367   143 H    0.963
    76   8 O    2.072 --    73 C    1.055   144 H    0.851
    77   1 H    0.993 --     4 C    0.962
    78   1 H    0.993 --     6 C    0.961
    79   1 H    0.998 --     7 C    0.950
    80   1 H    0.996 --     8 C    0.959
    81   1 H    0.996 --     9 C    0.941
    82   1 H    0.993 --    10 C    0.955
    83   1 H    0.996 --    11 C    0.942
    84   1 H    0.999 --    13 C    0.960
    85   1 H    0.997 --    13 C    0.967
    86   1 H    0.889 --    14 O    0.845
    87   1 H    0.883 --    15 O    0.830
    88   1 H    0.998 --    18 C    0.966
    89   1 H    0.994 --    18 C    0.966
    90   1 H    0.876 --    19 O    0.860
    91   1 H    1.000 --    20 C    0.940
    92   1 H    0.999 --    22 C    0.953
    93   1 H    0.997 --    23 C    0.953
    94   1 H    0.997 --    24 C    0.943
    95   1 H    0.991 --    25 C    0.952
    96   1 H    0.870 --    26 O    0.851
    97   1 H    0.864 --    28 O    0.842
    98   1 H    0.990 --    29 C    0.959
    99   1 H    0.991 --    29 C    0.964
   100   1 H    0.993 --    34 C    0.959
   101   1 H    0.995 --    36 C    0.952
   102   1 H    0.995 --    37 C    0.958
   103   1 H    0.996 --    38 C    0.957
   104   1 H    0.995 --    39 C    0.966
   105   1 H    0.983 --    39 C    0.937
   106   1 H    0.992 --    40 C    0.943
   107   1 H    0.999 --    41 C    0.963
   108   1 H    0.892 --    42 O    0.855
   109   1 H    0.997 --    43 C    0.960
   110   1 H    0.997 --    44 C    0.950
   111   1 H    0.999 --    45 C    0.967
   112   1 H    0.998 --    46 C    0.979
   113   1 H    0.997 --    46 C    0.960
   114   1 H    0.998 --    47 C    0.970
   115   1 H    0.999 --    47 C    0.976
   116   1 H    0.999 --    48 C    0.972
   117   1 H    0.999 --    48 C    0.977
   118   1 H    0.999 --    49 C    0.978
   119   1 H    0.999 --    49 C    0.968
   120   1 H    0.998 --    50 C    0.987
   121   1 H    0.999 --    50 C    0.979
   122   1 H    0.998 --    50 C    0.984
   123   1 H    0.879 --    51 O    0.839
   124   1 H    0.868 --    52 O    0.850
   125   1 H    1.000 --    53 C    0.943
   126   1 H    0.996 --    54 C    0.955
   127   1 H    0.999 --    55 C    0.959
   128   1 H    0.997 --    56 C    0.955
   129   1 H    1.000 --    57 C    0.945
   130   1 H    0.991 --    59 C    0.953
   131   1 H    0.997 --    59 C    0.958
   132   1 H    0.867 --    60 O    0.841
   133   1 H    0.864 --    61 O    0.847
   134   1 H    0.872 --    62 O    0.852
   135   1 H    0.906 --    63 O    0.859
   136   1 H    0.997 --    65 C    0.960
   137   1 H    0.996 --    66 C    0.962
   138   1 H    0.995 --    68 C    0.962
   139   1 H    0.995 --    69 C    0.963
   140   1 H    0.997 --    71 C    0.965
   141   1 H    0.997 --    72 C    0.965
   142   1 H    0.994 --    74 C    0.961
   143   1 H    0.996 --    75 C    0.963
   144   1 H    0.872 --    76 O    0.851
 ---------------------------------------------------------------------------

Topologies differ in total number of bonds
Writing topology from bond orders to xtbtopo.mol

molecular dipole:
                 x           y           z       tot (Debye)
 q only:        1.686       2.401       2.172
   full:        1.211       2.361       2.771       9.751
molecular quadrupole (traceless):
                xx          xy          yy          xz          yz          zz
 q only:        0.742       5.728      20.402      20.324      -0.427     -21.144
  q+dip:      -18.006      10.461      24.715      17.135       6.631      -6.709
   full:      -17.837       9.055      27.698      21.787       1.820      -9.861


           -------------------------------------------------
          | TOTAL ENERGY             -239.835456248779 Eh   |
          | GRADIENT NORM               0.121210396079 Eh/α |
          | HOMO-LUMO GAP               1.349924947595 eV   |
           -------------------------------------------------

------------------------------------------------------------------------
 * finished run on 2026/06/19 at 18:53:11.438     
------------------------------------------------------------------------
 total:
 * wall-time:     0 d,  0 h,  0 min,  0.317 sec
 *  cpu-time:     0 d,  0 h,  0 min,  4.879 sec
 * ratio c/w:    15.415 speedup
 SCF:
 * wall-time:     0 d,  0 h,  0 min,  0.267 sec
 *  cpu-time:     0 d,  0 h,  0 min,  4.233 sec
 * ratio c/w:    15.843 speedup

normal termination of xtb
