      -----------------------------------------------------------      
     |                   =====================                   |     
     |                           x T B                           |     
     |                   =====================                   |     
     |                         S. Grimme                         |     
     |          Mulliken Center for Theoretical Chemistry        |     
     |                    University of Bonn                     |     
      -----------------------------------------------------------      

   * xtb version 6.7.1 (edcfbbe) compiled by 'albert@albert-system' on 2024-07-22

   xtb is free software: you can redistribute it and/or modify it under
   the terms of the GNU Lesser General Public License as published by
   the Free Software Foundation, either version 3 of the License, or
   (at your option) any later version.
   
   xtb is distributed in the hope that it will be useful,
   but WITHOUT ANY WARRANTY; without even the implied warranty of
   MERCHANTABILITY or FITNESS FOR A PARTICULAR PURPOSE.  See the
   GNU Lesser General Public License for more details.
   
   Cite this work as:
   * C. Bannwarth, E. Caldeweyher, S. Ehlert, A. Hansen, P. Pracht,
     J. Seibert, S. Spicher, S. Grimme, WIREs Comput. Mol. Sci., 2020, 11,
     e01493. DOI: 10.1002/wcms.1493
   
   for GFN2-xTB:
   * C. Bannwarth, S. Ehlert and S. Grimme., J. Chem. Theory Comput., 2019,
     15, 1652-1671. DOI: 10.1021/acs.jctc.8b01176
   for GFN1-xTB:
   * S. Grimme, C. Bannwarth, P. Shushkov, J. Chem. Theory Comput., 2017,
     13, 1989-2009. DOI: 10.1021/acs.jctc.7b00118
   for GFN0-xTB:
   * P. Pracht, E. Caldeweyher, S. Ehlert, S. Grimme, ChemRxiv, 2019, preprint.
     DOI: 10.26434/chemrxiv.8326202.v1
   for GFN-FF:
   * S. Spicher and S. Grimme, Angew. Chem. Int. Ed., 2020, 59, 15665-15673.
     DOI: 10.1002/anie.202004239
   
   for ALPB and GBSA implicit solvation:
   * S. Ehlert, M. Stahn, S. Spicher, S. Grimme, J. Chem. Theory Comput.,
     2021, 17, 4250-4261. DOI: 10.1021/acs.jctc.1c00471
   
   for ddCOSMO and CPCM-X implicit solvation:
   * M. Stahn, S. Ehlert, S. Grimme, J. Phys. Chem. A,
     2023, XX, XXXX-XXXX. DOI: 10.1021/acs.jpca.3c04382
   
   for DFT-D4:
   * E. Caldeweyher, C. Bannwarth and S. Grimme, J. Chem. Phys., 2017,
     147, 034112. DOI: 10.1063/1.4993215
   * E. Caldeweyher, S. Ehlert, A. Hansen, H. Neugebauer, S. Spicher,
     C. Bannwarth and S. Grimme, J. Chem. Phys., 2019, 150, 154122.
     DOI: 10.1063/1.5090222
   * E. Caldeweyher, J.-M. Mewes, S. Ehlert and S. Grimme, Phys. Chem. Chem. Phys.
     2020, 22, 8499-8512. DOI: 10.1039/D0CP00502A
   
   for sTDA-xTB:
   * S. Grimme and C. Bannwarth, J. Chem. Phys., 2016, 145, 054103.
     DOI: 10.1063/1.4959605
   
   in the mass-spec context:
   * V. Asgeirsson, C. Bauer and S. Grimme, Chem. Sci., 2017, 8, 4879.
     DOI: 10.1039/c7sc00601b
   * J. Koopman and S. Grimme, ACS Omega 2019, 4, 12, 15120-15133.
     DOI: 10.1021/acsomega.9b02011
   
   for metadynamics refer to:
   * S. Grimme, J. Chem. Theory Comput., 2019, 155, 2847-2862
     DOI: 10.1021/acs.jctc.9b00143
   
   for SPH calculations refer to:
   * S. Spicher and S. Grimme, J. Chem. Theory Comput., 2021, 17, 1701-1714
     DOI: 10.1021/acs.jctc.0c01306
   
   for ONIOM refer to:
   * C. Plett, A. Katbashev, S. Ehlert, S. Grimme, M. Bursch,
     Phys. Chem. Chem. Phys., 2023, 25, 17860-17868. DOI: 10.1039/D3CP02178E
   
   for DIPRO refer to:
   * J. Kohn, N. Gildemeister, S. Grimme, D. Fazzi, A. Hansen,
     J. Chem. Phys., 2023, just accepted.
   
   for PTB refer to:
   * S. Grimme, M. Mueller, A. Hansen, J. Chem. Phys., 2023, 158, 124111.
     DOI: 10.1063/5.0137838
   
   with help from (in alphabetical order)
   P. Atkinson, C. Bannwarth, F. Bohle, G. Brandenburg, E. Caldeweyher
   M. Checinski, S. Dohm, S. Ehlert, S. Ehrlich, I. Gerasimov, C. Hölzer
   A. Katbashev, J. Kohn, J. Koopman, C. Lavigne, S. Lehtola, F. März, M. Müller,
   F. Musil, H. Neugebauer, J. Pisarek, C. Plett, P. Pracht, F. Pultar,
   J. Seibert, P. Shushkov, S. Spicher, M. Stahn, M. Steiner, T. Strunk,
   J. Stückrath, T. Rose, and J. Unsleber
   
 * started run on 2026/06/19 at 18:53:10.787     
   ID    Z sym.   atoms
    1    6 C      1-11, 13, 18, 20, 22-25, 29, 31, 33, 34, 36-41, 43-50,
                  53-57, 59, 64-75
    2    8 O      12, 14-17, 19, 21, 26-28, 30, 32, 35, 42, 51, 52, 58,
                  60-63, 76
    3    1 H      77-144

           -------------------------------------------------
          |                Calculation Setup                |
           -------------------------------------------------

          program call               : xtb PAPU-0091/conf03.xyz --gfn 2 --alpb water --chrg 0 --uhf 0 --namespace PAPU-0091/conf03_water
          hostname                   : cpu10
          calculation namespace      : PAPU-0091/conf03_water
          coordinate file            : PAPU-0091/conf03.xyz
          omp threads                :                    16


           -------------------------------------------------
          |                 G F N 2 - x T B                 |
           -------------------------------------------------

        Reference                      10.1021/acs.jctc.8b01176
      * Hamiltonian:
        H0-scaling (s, p, d)           1.850000    2.230000    2.230000
        zeta-weighting                 0.500000
      * Dispersion:
        s8                             2.700000
        a1                             0.520000
        a2                             5.000000
        s9                             5.000000
      * Repulsion:
        kExp                           1.500000    1.000000
        rExp                           1.000000
      * Coulomb:
        alpha                          2.000000
        third order                    shell-resolved
        anisotropic                    true
        a3                             3.000000
        a5                             4.000000
        cn-shift                       1.200000
        cn-exp                         4.000000
        max-rad                        5.000000

      * Solvation model:               ALPB
        Solvent                        water
        Parameter file                 internal GFN2-xTB/ALPB
        Dielectric constant                8.0200E+01
        Reference state                gsolv [1 M gas/solution]
        Free energy shift                  1.0808E-03 Eh       6.7819E-01 kcal/mol
        Temperature                        2.9815E+02 K
        Density                            1.0000E+00 kg/L
        Solvent mass                       1.8000E+01 g/mol
        Interaction kernel             P16
        Born radius scaling (c1)           1.4744E+00
        Born radii integrator          GBOBC
        Born offset                        0.0000E+00 a0       0.0000E+00 AA
        H-bond correction              true
        Ion screening                  false
        Surface tension                    1.0000E-05 Eh       1.5569E+01 dyn/cm
        Grid points                               230 per atom

          ...................................................
          :                      SETUP                      :
          :.................................................:
          :  # basis functions                 372          :
          :  # atomic orbitals                 372          :
          :  # shells                          220          :
          :  # electrons                       416          :
          :  max. iterations                   250          :
          :  Hamiltonian                  GFN2-xTB          :
          :  restarted?                      false          :
          :  GBSA solvation                   true          :
          :  PC potential                    false          :
          :  electronic temp.          300.0000000     K    :
          :  accuracy                    1.0000000          :
          :  -> integral cutoff          0.2500000E+02      :
          :  -> integral neglect         0.1000000E-07      :
          :  -> SCF convergence          0.1000000E-05 Eh   :
          :  -> wf. convergence          0.1000000E-03 e    :
          :  Broyden damping             0.4000000          :
          :  net charge                          0          :
          :  unpaired electrons                  0          :
          ...................................................

 iter      E             dE          RMSdq      gap      omega  full diag
   1   -242.1788444 -0.242179E+03  0.446E+00    2.41       0.0  T
   2   -242.4052584 -0.226414E+00  0.245E+00    1.82       1.0  T
   3   -242.3847131  0.205453E-01  0.104E+00    1.74       1.0  T
   4   -242.4270453 -0.423321E-01  0.322E-01    1.52       1.0  T
   5   -242.4332811 -0.623584E-02  0.135E-01    1.51       1.0  T
   6   -242.4340176 -0.736459E-03  0.692E-02    1.50       1.0  T
   7   -242.4341646 -0.147090E-03  0.313E-02    1.50       1.0  T
   8   -242.4342017 -0.370811E-04  0.138E-02    1.50       1.0  T
   9   -242.4342087 -0.695511E-05  0.726E-03    1.50       1.1  T
  10   -242.4342104 -0.173331E-05  0.442E-03    1.49       1.9  T
  11   -242.4342114 -0.101361E-05  0.233E-03    1.49       3.6  T
  12   -242.4342116 -0.209330E-06  0.982E-04    1.49       8.5  T
  13   -242.4342117 -0.503276E-07  0.472E-04    1.49      17.7  T

   *** convergence criteria satisfied after 13 iterations ***

         #    Occupation            Energy/Eh            Energy/eV
      -------------------------------------------------------------
         1        2.0000           -0.7666263             -20.8610
       ...           ...                  ...                  ...
       202        2.0000           -0.4055714             -11.0362
       203        2.0000           -0.4050431             -11.0218
       204        2.0000           -0.4007777             -10.9057
       205        2.0000           -0.3992938             -10.8653
       206        2.0000           -0.3863261             -10.5125
       207        2.0000           -0.3817801             -10.3888
       208        2.0000           -0.3628477              -9.8736 (HOMO)
       209                         -0.3080929              -8.3836 (LUMO)
       210                         -0.2904544              -7.9037
       211                         -0.2363592              -6.4317
       212                         -0.2353796              -6.4050
       213                         -0.2326576              -6.3309
       ...                                ...                  ...
       372                          0.6906306              18.7930
      -------------------------------------------------------------
                  HL-Gap            0.0547549 Eh            1.4900 eV
             Fermi-level           -0.3354703 Eh           -9.1286 eV

 SCC (total)                   0 d,  0 h,  0 min,  0.262 sec
 SCC setup                      ...        0 min,  0.003 sec (  1.161%)
 Dispersion                     ...        0 min,  0.004 sec (  1.672%)
 classical contributions        ...        0 min,  0.000 sec (  0.046%)
 integral evaluation            ...        0 min,  0.011 sec (  4.351%)
 iterations                     ...        0 min,  0.202 sec ( 77.323%)
 molecular gradient             ...        0 min,  0.039 sec ( 14.827%)
 printout                       ...        0 min,  0.002 sec (  0.604%)

         :::::::::::::::::::::::::::::::::::::::::::::::::::::
         ::                     SUMMARY                     ::
         :::::::::::::::::::::::::::::::::::::::::::::::::::::
         :: total energy            -239.813970412408 Eh    ::
         :: total w/o Gsasa/hb      -239.776954555241 Eh    ::
         :: gradient norm              0.120826945212 Eh/a0 ::
         :: HOMO-LUMO gap              1.489955466938 eV    ::
         ::.................................................::
         :: SCC energy              -242.418262921989 Eh    ::
         :: -> isotropic ES            0.571901845573 Eh    ::
         :: -> anisotropic ES         -0.034402327452 Eh    ::
         :: -> anisotropic XC          0.019496797634 Eh    ::
         :: -> dispersion             -0.197381833942 Eh    ::
         :: -> Gsolv                  -0.093207903337 Eh    ::
         ::    -> Gelec               -0.056192046169 Eh    ::
         ::    -> Gsasa                0.007860512814 Eh    ::
         ::    -> Ghb                 -0.045957129680 Eh    ::
         ::    -> Gshift               0.001080759698 Eh    ::
         :: repulsion energy           2.604292509580 Eh    ::
         :: add. restraining           0.000000000000 Eh    ::
         :: total charge               0.000000000000 e     ::
         :::::::::::::::::::::::::::::::::::::::::::::::::::::

           -------------------------------------------------
          |                Property Printout                |
           -------------------------------------------------

    * Orbital Energies and Occupations

         #    Occupation            Energy/Eh            Energy/eV
      -------------------------------------------------------------
         1        2.0000           -0.7666263             -20.8610
       ...           ...                  ...                  ...
       196        2.0000           -0.4181632             -11.3788
       197        2.0000           -0.4162746             -11.3274
       198        2.0000           -0.4147969             -11.2872
       199        2.0000           -0.4139684             -11.2647
       200        2.0000           -0.4105791             -11.1724
       201        2.0000           -0.4082017             -11.1077
       202        2.0000           -0.4055714             -11.0362
       203        2.0000           -0.4050431             -11.0218
       204        2.0000           -0.4007777             -10.9057
       205        2.0000           -0.3992938             -10.8653
       206        2.0000           -0.3863261             -10.5125
       207        2.0000           -0.3817801             -10.3888
       208        2.0000           -0.3628477              -9.8736 (HOMO)
       209                         -0.3080929              -8.3836 (LUMO)
       210                         -0.2904544              -7.9037
       211                         -0.2363592              -6.4317
       212                         -0.2353796              -6.4050
       213                         -0.2326576              -6.3309
       214                         -0.2315285              -6.3002
       215                         -0.2269765              -6.1763
       216                         -0.2251937              -6.1278
       217                         -0.2244744              -6.1083
       218                         -0.1883340              -5.1248
       219                         -0.1565214              -4.2592
       ...                                ...                  ...
       372                          0.6906306              18.7930
      -------------------------------------------------------------
                  HL-Gap            0.0547549 Eh            1.4900 eV
             Fermi-level           -0.3354703 Eh           -9.1286 eV

     #   Z          covCN         q      C6AA      α(0)
     1   6 C        2.841     0.142    24.893     8.176
     2   6 C        2.972    -0.046    29.136     8.854
     3   6 C        2.964     0.002    27.974     8.675
     4   6 C        2.927    -0.076    29.898     8.967
     5   6 C        2.837     0.148    24.772     8.156
     6   6 C        2.920    -0.099    30.486     9.054
     7   6 C        3.751     0.099    18.998     6.216
     8   6 C        3.722     0.099    19.054     6.234
     9   6 C        3.773     0.099    18.970     6.206
    10   6 C        3.742     0.093    19.119     6.238
    11   6 C        3.744     0.085    19.241     6.257
    12   8 O        1.694    -0.354    19.968     6.033
    13   6 C        3.680     0.078    19.480     6.321
    14   8 O        1.652    -0.496    22.811     6.447
    15   8 O        1.651    -0.489    22.658     6.426
    16   8 O        1.698    -0.337    19.647     5.984
    17   8 O        1.703    -0.288    18.791     5.853
    18   6 C        3.675     0.074    19.566     6.338
    19   8 O        1.654    -0.494    22.768     6.441
    20   6 C        3.638     0.250    17.060     5.942
    21   8 O        1.695    -0.358    20.032     6.043
    22   6 C        3.743     0.113    18.798     6.185
    23   6 C        3.723     0.097    19.081     6.238
    24   6 C        3.725     0.091    19.167     6.251
    25   6 C        3.752     0.088    19.172     6.244
    26   8 O        1.654    -0.485    22.566     6.413
    27   8 O        1.699    -0.323    19.392     5.945
    28   8 O        1.653    -0.495    22.780     6.443
    29   6 C        3.741     0.074    19.423     6.288
    30   8 O        1.703    -0.292    18.847     5.861
    31   6 C        2.764     0.346    21.121     7.526
    32   8 O        0.857    -0.454    22.790     6.401
    33   6 C        2.746     0.356    20.958     7.496
    34   6 C        2.897    -0.089    30.223     9.014
    35   8 O        0.857    -0.489    23.540     6.505
    36   6 C        2.904     0.002    27.992     8.675
    37   6 C        2.899    -0.048    29.203     8.860
    38   6 C        2.896    -0.007    28.191     8.705
    39   6 C        3.806    -0.080    22.025     6.681
    40   6 C        3.726     0.118    18.747     6.182
    41   6 C        2.895    -0.061    29.517     8.908
    42   8 O        1.651    -0.503    22.959     6.468
    43   6 C        2.897    -0.037    28.927     8.818
    44   6 C        2.898    -0.059    29.466     8.900
    45   6 C        2.894    -0.039    28.962     8.824
    46   6 C        3.805    -0.063    21.700     6.632
    47   6 C        3.800    -0.060    21.652     6.625
    48   6 C        3.800    -0.060    21.647     6.624
    49   6 C        3.799    -0.053    21.535     6.607
    50   6 C        3.751    -0.103    22.523     6.768
    51   8 O        1.656    -0.437    21.571     6.270
    52   8 O        1.657    -0.449    21.825     6.307
    53   6 C        3.649     0.238    17.195     5.957
    54   6 C        3.723     0.089    19.204     6.258
    55   6 C        3.724     0.100    19.031     6.230
    56   6 C        3.722     0.093    19.151     6.250
    57   6 C        3.743     0.104    18.937     6.208
    58   8 O        1.695    -0.366    20.182     6.065
    59   6 C        3.675     0.074    19.570     6.339
    60   8 O        1.653    -0.478    22.424     6.392
    61   8 O        1.654    -0.488    22.645     6.424
    62   8 O        1.653    -0.493    22.752     6.439
    63   8 O        1.652    -0.469    22.234     6.365
    64   6 C        2.974    -0.023    28.579     8.769
    65   6 C        2.925    -0.019    28.474     8.751
    66   6 C        2.926    -0.030    28.754     8.794
    67   6 C        2.975     0.026    27.422     8.590
    68   6 C        2.926    -0.033    28.827     8.805
    69   6 C        2.924    -0.017    28.427     8.743
    70   6 C        2.975    -0.001    28.048     8.687
    71   6 C        2.923    -0.036    28.907     8.817
    72   6 C        2.918    -0.070    29.755     8.945
    73   6 C        2.841     0.143    24.890     8.176
    74   6 C        2.920    -0.054    29.354     8.885
    75   6 C        2.924    -0.033    28.827     8.805
    76   8 O        1.657    -0.456    21.966     6.327
    77   1 H        0.926     0.069     2.093     2.262
    78   1 H        0.926     0.075     2.032     2.229
    79   1 H        0.924     0.042     2.425     2.435
    80   1 H        0.923     0.061     2.193     2.316
    81   1 H        0.924     0.056     2.242     2.341
    82   1 H        0.923     0.081     1.973     2.196
    83   1 H        0.924     0.062     2.172     2.305
    84   1 H        0.924     0.036     2.507     2.476
    85   1 H        0.924     0.049     2.329     2.387
    86   1 H        0.802     0.333     0.629     1.246
    87   1 H        0.802     0.342     0.609     1.226
    88   1 H        0.924     0.049     2.332     2.388
    89   1 H        0.924     0.065     2.140     2.287
    90   1 H        0.804     0.365     0.554     1.170
    91   1 H        0.923     0.003     3.004     2.710
    92   1 H        0.923     0.030     2.590     2.517
    93   1 H        0.923     0.050     2.318     2.381
    94   1 H        0.924     0.050     2.324     2.384
    95   1 H        0.923     0.089     1.885     2.147
    96   1 H        0.804     0.367     0.549     1.164
    97   1 H        0.803     0.379     0.525     1.139
    98   1 H        0.924     0.091     1.872     2.140
    99   1 H        0.924     0.093     1.846     2.125
   100   1 H        0.926     0.079     1.988     2.205
   101   1 H        0.926     0.073     2.053     2.240
   102   1 H        0.926     0.070     2.084     2.257
   103   1 H        0.926     0.064     2.152     2.294
   104   1 H        0.924     0.067     2.115     2.274
   105   1 H        0.924     0.087     1.907     2.160
   106   1 H        0.923     0.037     2.485     2.465
   107   1 H        0.926     0.039     2.464     2.455
   108   1 H        0.803     0.334     0.626     1.243
   109   1 H        0.926     0.046     2.367     2.406
   110   1 H        0.926     0.057     2.235     2.338
   111   1 H        0.926     0.032     2.563     2.504
   112   1 H        0.924     0.035     2.515     2.480
   113   1 H        0.924     0.048     2.345     2.395
   114   1 H        0.924     0.039     2.460     2.453
   115   1 H        0.924     0.030     2.581     2.513
   116   1 H        0.924     0.030     2.582     2.513
   117   1 H        0.924     0.032     2.563     2.503
   118   1 H        0.924     0.026     2.644     2.543
   119   1 H        0.924     0.026     2.641     2.541
   120   1 H        0.924     0.037     2.492     2.469
   121   1 H        0.924     0.026     2.643     2.543
   122   1 H        0.924     0.036     2.509     2.477
   123   1 H        0.803     0.353     0.581     1.197
   124   1 H        0.804     0.381     0.521     1.134
   125   1 H        0.923     0.004     2.988     2.703
   126   1 H        0.923     0.060     2.194     2.316
   127   1 H        0.923     0.031     2.574     2.509
   128   1 H        0.923     0.049     2.337     2.391
   129   1 H        0.924     0.010     2.889     2.658
   130   1 H        0.924     0.089     1.888     2.149
   131   1 H        0.924     0.051     2.302     2.373
   132   1 H        0.803     0.369     0.545     1.160
   133   1 H        0.804     0.379     0.525     1.138
   134   1 H        0.804     0.368     0.548     1.163
   135   1 H        0.801     0.306     0.704     1.319
   136   1 H        0.926     0.054     2.265     2.353
   137   1 H        0.926     0.054     2.267     2.354
   138   1 H        0.926     0.065     2.137     2.286
   139   1 H        0.926     0.060     2.203     2.321
   140   1 H        0.926     0.048     2.342     2.393
   141   1 H        0.926     0.053     2.286     2.365
   142   1 H        0.926     0.070     2.086     2.258
   143   1 H        0.926     0.050     2.320     2.382
   144   1 H        0.804     0.372     0.541     1.155

 Mol. C6AA /au·bohr⁶  :     209119.363398
 Mol. C8AA /au·bohr⁸  :    4805511.119067
 Mol. α(0) /au        :        690.867846


Wiberg/Mayer (AO) data.
largest (>0.10) Wiberg bond orders for each atom

 ---------------------------------------------------------------------------
     #   Z sym  total        # sym  WBO       # sym  WBO       # sym  WBO
 ---------------------------------------------------------------------------
     1   6 C    3.944 --     6 C    1.388     2 C    1.334    51 O    1.078
     2   6 C    3.972 --     3 C    1.386     1 C    1.334     7 C    0.994
     3   6 C    3.987 --     4 C    1.429     2 C    1.386    13 C    1.003
     4   6 C    3.983 --     3 C    1.429     5 C    1.358    77 H    0.964
     5   6 C    3.945 --     6 C    1.380     4 C    1.358    52 O    1.080
     6   6 C    3.978 --     1 C    1.388     5 C    1.380    78 H    0.961
     7   6 C    3.938 --     2 C    0.994    79 H    0.949     8 C    0.948
                            12 O    0.946
     8   6 C    3.956 --    15 O    1.007    80 H    0.959     9 C    0.956
                             7 C    0.948
     9   6 C    3.926 --    10 C    0.967     8 C    0.956    17 O    0.944
                            81 H    0.941
    10   6 C    3.930 --     9 C    0.967    11 C    0.958    16 O    0.958
                            82 H    0.954
    11   6 C    3.941 --    18 C    0.983    12 O    0.961    10 C    0.958
                            83 H    0.943
    12   8 O    2.066 --    11 C    0.961     7 C    0.946
    13   6 C    3.950 --     3 C    1.003    14 O    0.974    85 H    0.967
                            84 H    0.960
    14   8 O    1.946 --    13 C    0.974    86 H    0.844
    15   8 O    1.936 --     8 C    1.007    87 H    0.831
    16   8 O    2.081 --    20 C    0.981    10 C    0.958
    17   8 O    2.273 --    33 C    1.093     9 C    0.944    35 O    0.145
    18   6 C    3.958 --    19 O    1.010    11 C    0.983    89 H    0.967
                            88 H    0.966
    19   8 O    1.919 --    18 C    1.010    90 H    0.850
    20   6 C    3.926 --    16 O    0.981    25 C    0.955    21 O    0.955
                            91 H    0.940
    21   8 O    2.061 --    20 C    0.955    22 C    0.948
    22   6 C    3.937 --    29 C    0.978    23 C    0.970    92 H    0.953
                            21 O    0.948
    23   6 C    3.966 --    28 O    1.006    22 C    0.970    24 C    0.967
                            93 H    0.953
    24   6 C    3.961 --    26 O    1.001    23 C    0.967    25 C    0.965
                            94 H    0.944
    25   6 C    3.938 --    27 O    0.966    24 C    0.965    20 C    0.955
                            95 H    0.952
    26   8 O    1.928 --    24 C    1.001    96 H    0.846
    27   8 O    2.094 --    53 C    0.983    25 C    0.966
    28   8 O    1.913 --    23 C    1.006    97 H    0.834
    29   6 C    3.922 --    22 C    0.978    99 H    0.963    98 H    0.960
                            30 O    0.956
    30   8 O    2.252 --    31 C    1.049    29 C    0.956    32 O    0.136
    31   6 C    3.891 --    32 O    1.703    30 O    1.049    64 C    1.036
    32   8 O    2.001 --    31 C    1.703    30 O    0.136
    33   6 C    3.896 --    35 O    1.624    17 O    1.093    34 C    1.075
    34   6 C    3.967 --    36 C    1.708    33 C    1.075   100 H    0.960
                            38 C    0.113
    35   8 O    1.987 --    33 C    1.624    17 O    0.145
    36   6 C    3.971 --    34 C    1.708    37 C    1.164   101 H    0.952
    37   6 C    3.985 --    38 C    1.771    36 C    1.164   102 H    0.958
    38   6 C    3.971 --    37 C    1.771    39 C    1.046   103 H    0.958
                            34 C    0.113
    39   6 C    3.987 --    38 C    1.046   104 H    0.966    40 C    0.966
                           105 H    0.936
    40   6 C    3.951 --    41 C    1.008    42 O    0.981    39 C    0.966
                           106 H    0.943
    41   6 C    3.981 --    43 C    1.836    40 C    1.008   107 H    0.963
                            45 C    0.126
    42   8 O    1.917 --    40 C    0.981   108 H    0.851
    43   6 C    3.990 --    41 C    1.836    44 C    1.121   109 H    0.961
    44   6 C    3.988 --    45 C    1.834    43 C    1.121   110 H    0.949
    45   6 C    3.982 --    44 C    1.834    46 C    1.027   111 H    0.967
                            41 C    0.126
    46   6 C    3.996 --    45 C    1.027    47 C    0.991   112 H    0.979
                           113 H    0.960
    47   6 C    3.990 --    48 C    1.008    46 C    0.991   115 H    0.977
                           114 H    0.970
    48   6 C    3.996 --    47 C    1.008    49 C    1.007   117 H    0.977
                           116 H    0.972
    49   6 C    3.997 --    50 C    1.020    48 C    1.007   118 H    0.978
                           119 H    0.968
    50   6 C    3.995 --    49 C    1.020   120 H    0.987   122 H    0.984
                           121 H    0.980
    51   8 O    2.086 --     1 C    1.078   123 H    0.834
    52   8 O    2.076 --     5 C    1.080   124 H    0.837
    53   6 C    3.921 --    27 O    0.983    54 C    0.956    58 O    0.952
                           125 H    0.944
    54   6 C    3.958 --    62 O    1.000    55 C    0.970    53 C    0.956
                           126 H    0.955
    55   6 C    3.966 --    61 O    1.003    54 C    0.970    56 C    0.969
                           127 H    0.959
    56   6 C    3.967 --    60 O    1.004    55 C    0.969    57 C    0.967
                           128 H    0.955
    57   6 C    3.935 --    59 C    0.982    56 C    0.967    58 O    0.947
                           129 H    0.945
    58   8 O    2.054 --    53 C    0.952    57 C    0.947
    59   6 C    3.948 --    63 O    1.004    57 C    0.982   131 H    0.958
                           130 H    0.954
    60   8 O    1.937 --    56 C    1.004   132 H    0.838
    61   8 O    1.926 --    55 C    1.003   133 H    0.839
    62   8 O    1.918 --    54 C    1.000   134 H    0.845
    63   8 O    1.943 --    59 C    1.004   135 H    0.859
    64   6 C    3.973 --    65 C    1.361    69 C    1.358    31 C    1.036
    65   6 C    3.986 --    66 C    1.471    64 C    1.361   136 H    0.960
    66   6 C    3.988 --    65 C    1.471    67 C    1.371   137 H    0.962
    67   6 C    3.983 --    66 C    1.371    68 C    1.362    70 C    1.066
    68   6 C    3.986 --    69 C    1.483    67 C    1.362   138 H    0.962
    69   6 C    3.986 --    68 C    1.483    64 C    1.358   139 H    0.965
    70   6 C    3.986 --    71 C    1.373    75 C    1.366    67 C    1.066
    71   6 C    3.987 --    72 C    1.470    70 C    1.373   140 H    0.965
    72   6 C    3.986 --    71 C    1.470    73 C    1.366   141 H    0.965
    73   6 C    3.929 --    72 C    1.366    74 C    1.357    76 O    1.061
    74   6 C    3.987 --    75 C    1.476    73 C    1.357   142 H    0.962
    75   6 C    3.987 --    74 C    1.476    70 C    1.366   143 H    0.964
    76   8 O    2.070 --    73 C    1.061   144 H    0.841
    77   1 H    0.995 --     4 C    0.964
    78   1 H    0.994 --     6 C    0.961
    79   1 H    0.998 --     7 C    0.949
    80   1 H    0.996 --     8 C    0.959
    81   1 H    0.997 --     9 C    0.941
    82   1 H    0.993 --    10 C    0.954
    83   1 H    0.996 --    11 C    0.943
    84   1 H    0.998 --    13 C    0.960
    85   1 H    0.997 --    13 C    0.967
    86   1 H    0.888 --    14 O    0.844
    87   1 H    0.883 --    15 O    0.831
    88   1 H    0.997 --    18 C    0.966
    89   1 H    0.995 --    18 C    0.967
    90   1 H    0.867 --    19 O    0.850
    91   1 H    1.000 --    20 C    0.940
    92   1 H    0.999 --    22 C    0.953
    93   1 H    0.997 --    23 C    0.953
    94   1 H    0.998 --    24 C    0.944
    95   1 H    0.991 --    25 C    0.952
    96   1 H    0.865 --    26 O    0.846
    97   1 H    0.856 --    28 O    0.834
    98   1 H    0.991 --    29 C    0.960
    99   1 H    0.991 --    29 C    0.963
   100   1 H    0.994 --    34 C    0.960
   101   1 H    0.995 --    36 C    0.952
   102   1 H    0.995 --    37 C    0.958
   103   1 H    0.996 --    38 C    0.958
   104   1 H    0.995 --    39 C    0.966
   105   1 H    0.982 --    39 C    0.936
   106   1 H    0.992 --    40 C    0.943
   107   1 H    0.998 --    41 C    0.963
   108   1 H    0.888 --    42 O    0.851
   109   1 H    0.998 --    43 C    0.961
   110   1 H    0.997 --    44 C    0.949
   111   1 H    0.999 --    45 C    0.967
   112   1 H    0.998 --    46 C    0.979
   113   1 H    0.997 --    46 C    0.960
   114   1 H    0.998 --    47 C    0.970
   115   1 H    0.999 --    47 C    0.977
   116   1 H    0.999 --    48 C    0.972
   117   1 H    0.999 --    48 C    0.977
   118   1 H    0.999 --    49 C    0.978
   119   1 H    0.999 --    49 C    0.968
   120   1 H    0.999 --    50 C    0.987
   121   1 H    0.999 --    50 C    0.980
   122   1 H    0.999 --    50 C    0.984
   123   1 H    0.875 --    51 O    0.834
   124   1 H    0.854 --    52 O    0.837
   125   1 H    1.000 --    53 C    0.944
   126   1 H    0.996 --    54 C    0.955
   127   1 H    0.999 --    55 C    0.959
   128   1 H    0.997 --    56 C    0.955
   129   1 H    1.000 --    57 C    0.945
   130   1 H    0.992 --    59 C    0.954
   131   1 H    0.997 --    59 C    0.958
   132   1 H    0.863 --    60 O    0.838
   133   1 H    0.856 --    61 O    0.839
   134   1 H    0.864 --    62 O    0.845
   135   1 H    0.906 --    63 O    0.859
   136   1 H    0.997 --    65 C    0.960
   137   1 H    0.996 --    66 C    0.962
   138   1 H    0.995 --    68 C    0.962
   139   1 H    0.996 --    69 C    0.965
   140   1 H    0.998 --    71 C    0.965
   141   1 H    0.997 --    72 C    0.965
   142   1 H    0.995 --    74 C    0.962
   143   1 H    0.997 --    75 C    0.964
   144   1 H    0.861 --    76 O    0.841
 ---------------------------------------------------------------------------

Topologies differ in total number of bonds
Writing topology from bond orders to xtbtopo.mol

molecular dipole:
                 x           y           z       tot (Debye)
 q only:        1.614       2.547       2.760
   full:        1.186       2.475       3.165      10.648
molecular quadrupole (traceless):
                xx          xy          yy          xz          yz          zz
 q only:       -0.078      10.368      23.796      23.193       0.325     -23.718
  q+dip:      -18.539      14.062      27.132      19.229       7.146      -8.593
   full:      -18.382      12.646      30.113      23.861       2.337     -11.731


           -------------------------------------------------
          | TOTAL ENERGY             -239.813970412408 Eh   |
          | GRADIENT NORM               0.120826945212 Eh/α |
          | HOMO-LUMO GAP               1.489955466938 eV   |
           -------------------------------------------------

------------------------------------------------------------------------
 * finished run on 2026/06/19 at 18:53:11.109     
------------------------------------------------------------------------
 total:
 * wall-time:     0 d,  0 h,  0 min,  0.321 sec
 *  cpu-time:     0 d,  0 h,  0 min,  4.889 sec
 * ratio c/w:    15.214 speedup
 SCF:
 * wall-time:     0 d,  0 h,  0 min,  0.262 sec
 *  cpu-time:     0 d,  0 h,  0 min,  4.150 sec
 * ratio c/w:    15.818 speedup

normal termination of xtb
