      -----------------------------------------------------------      
     |                   =====================                   |     
     |                           x T B                           |     
     |                   =====================                   |     
     |                         S. Grimme                         |     
     |          Mulliken Center for Theoretical Chemistry        |     
     |                    University of Bonn                     |     
      -----------------------------------------------------------      

   * xtb version 6.7.1 (edcfbbe) compiled by 'albert@albert-system' on 2024-07-22

   xtb is free software: you can redistribute it and/or modify it under
   the terms of the GNU Lesser General Public License as published by
   the Free Software Foundation, either version 3 of the License, or
   (at your option) any later version.
   
   xtb is distributed in the hope that it will be useful,
   but WITHOUT ANY WARRANTY; without even the implied warranty of
   MERCHANTABILITY or FITNESS FOR A PARTICULAR PURPOSE.  See the
   GNU Lesser General Public License for more details.
   
   Cite this work as:
   * C. Bannwarth, E. Caldeweyher, S. Ehlert, A. Hansen, P. Pracht,
     J. Seibert, S. Spicher, S. Grimme, WIREs Comput. Mol. Sci., 2020, 11,
     e01493. DOI: 10.1002/wcms.1493
   
   for GFN2-xTB:
   * C. Bannwarth, S. Ehlert and S. Grimme., J. Chem. Theory Comput., 2019,
     15, 1652-1671. DOI: 10.1021/acs.jctc.8b01176
   for GFN1-xTB:
   * S. Grimme, C. Bannwarth, P. Shushkov, J. Chem. Theory Comput., 2017,
     13, 1989-2009. DOI: 10.1021/acs.jctc.7b00118
   for GFN0-xTB:
   * P. Pracht, E. Caldeweyher, S. Ehlert, S. Grimme, ChemRxiv, 2019, preprint.
     DOI: 10.26434/chemrxiv.8326202.v1
   for GFN-FF:
   * S. Spicher and S. Grimme, Angew. Chem. Int. Ed., 2020, 59, 15665-15673.
     DOI: 10.1002/anie.202004239
   
   for ALPB and GBSA implicit solvation:
   * S. Ehlert, M. Stahn, S. Spicher, S. Grimme, J. Chem. Theory Comput.,
     2021, 17, 4250-4261. DOI: 10.1021/acs.jctc.1c00471
   
   for ddCOSMO and CPCM-X implicit solvation:
   * M. Stahn, S. Ehlert, S. Grimme, J. Phys. Chem. A,
     2023, XX, XXXX-XXXX. DOI: 10.1021/acs.jpca.3c04382
   
   for DFT-D4:
   * E. Caldeweyher, C. Bannwarth and S. Grimme, J. Chem. Phys., 2017,
     147, 034112. DOI: 10.1063/1.4993215
   * E. Caldeweyher, S. Ehlert, A. Hansen, H. Neugebauer, S. Spicher,
     C. Bannwarth and S. Grimme, J. Chem. Phys., 2019, 150, 154122.
     DOI: 10.1063/1.5090222
   * E. Caldeweyher, J.-M. Mewes, S. Ehlert and S. Grimme, Phys. Chem. Chem. Phys.
     2020, 22, 8499-8512. DOI: 10.1039/D0CP00502A
   
   for sTDA-xTB:
   * S. Grimme and C. Bannwarth, J. Chem. Phys., 2016, 145, 054103.
     DOI: 10.1063/1.4959605
   
   in the mass-spec context:
   * V. Asgeirsson, C. Bauer and S. Grimme, Chem. Sci., 2017, 8, 4879.
     DOI: 10.1039/c7sc00601b
   * J. Koopman and S. Grimme, ACS Omega 2019, 4, 12, 15120-15133.
     DOI: 10.1021/acsomega.9b02011
   
   for metadynamics refer to:
   * S. Grimme, J. Chem. Theory Comput., 2019, 155, 2847-2862
     DOI: 10.1021/acs.jctc.9b00143
   
   for SPH calculations refer to:
   * S. Spicher and S. Grimme, J. Chem. Theory Comput., 2021, 17, 1701-1714
     DOI: 10.1021/acs.jctc.0c01306
   
   for ONIOM refer to:
   * C. Plett, A. Katbashev, S. Ehlert, S. Grimme, M. Bursch,
     Phys. Chem. Chem. Phys., 2023, 25, 17860-17868. DOI: 10.1039/D3CP02178E
   
   for DIPRO refer to:
   * J. Kohn, N. Gildemeister, S. Grimme, D. Fazzi, A. Hansen,
     J. Chem. Phys., 2023, just accepted.
   
   for PTB refer to:
   * S. Grimme, M. Mueller, A. Hansen, J. Chem. Phys., 2023, 158, 124111.
     DOI: 10.1063/5.0137838
   
   with help from (in alphabetical order)
   P. Atkinson, C. Bannwarth, F. Bohle, G. Brandenburg, E. Caldeweyher
   M. Checinski, S. Dohm, S. Ehlert, S. Ehrlich, I. Gerasimov, C. Hölzer
   A. Katbashev, J. Kohn, J. Koopman, C. Lavigne, S. Lehtola, F. März, M. Müller,
   F. Musil, H. Neugebauer, J. Pisarek, C. Plett, P. Pracht, F. Pultar,
   J. Seibert, P. Shushkov, S. Spicher, M. Stahn, M. Steiner, T. Strunk,
   J. Stückrath, T. Rose, and J. Unsleber
   
 * started run on 2026/06/19 at 18:53:11.452     
   ID    Z sym.   atoms
    1    6 C      1-11, 13, 18, 20, 22-25, 29, 31, 33, 34, 36-41, 43-50,
                  53-57, 59, 64-75
    2    8 O      12, 14-17, 19, 21, 26-28, 30, 32, 35, 42, 51, 52, 58,
                  60-63, 76
    3    1 H      77-144

           -------------------------------------------------
          |                Calculation Setup                |
           -------------------------------------------------

          program call               : xtb PAPU-0091/conf04.xyz --gfn 2 --alpb water --chrg 0 --uhf 0 --namespace PAPU-0091/conf04_water
          hostname                   : cpu10
          calculation namespace      : PAPU-0091/conf04_water
          coordinate file            : PAPU-0091/conf04.xyz
          omp threads                :                    16


           -------------------------------------------------
          |                 G F N 2 - x T B                 |
           -------------------------------------------------

        Reference                      10.1021/acs.jctc.8b01176
      * Hamiltonian:
        H0-scaling (s, p, d)           1.850000    2.230000    2.230000
        zeta-weighting                 0.500000
      * Dispersion:
        s8                             2.700000
        a1                             0.520000
        a2                             5.000000
        s9                             5.000000
      * Repulsion:
        kExp                           1.500000    1.000000
        rExp                           1.000000
      * Coulomb:
        alpha                          2.000000
        third order                    shell-resolved
        anisotropic                    true
        a3                             3.000000
        a5                             4.000000
        cn-shift                       1.200000
        cn-exp                         4.000000
        max-rad                        5.000000

      * Solvation model:               ALPB
        Solvent                        water
        Parameter file                 internal GFN2-xTB/ALPB
        Dielectric constant                8.0200E+01
        Reference state                gsolv [1 M gas/solution]
        Free energy shift                  1.0808E-03 Eh       6.7819E-01 kcal/mol
        Temperature                        2.9815E+02 K
        Density                            1.0000E+00 kg/L
        Solvent mass                       1.8000E+01 g/mol
        Interaction kernel             P16
        Born radius scaling (c1)           1.4744E+00
        Born radii integrator          GBOBC
        Born offset                        0.0000E+00 a0       0.0000E+00 AA
        H-bond correction              true
        Ion screening                  false
        Surface tension                    1.0000E-05 Eh       1.5569E+01 dyn/cm
        Grid points                               230 per atom

          ...................................................
          :                      SETUP                      :
          :.................................................:
          :  # basis functions                 372          :
          :  # atomic orbitals                 372          :
          :  # shells                          220          :
          :  # electrons                       416          :
          :  max. iterations                   250          :
          :  Hamiltonian                  GFN2-xTB          :
          :  restarted?                      false          :
          :  GBSA solvation                   true          :
          :  PC potential                    false          :
          :  electronic temp.          300.0000000     K    :
          :  accuracy                    1.0000000          :
          :  -> integral cutoff          0.2500000E+02      :
          :  -> integral neglect         0.1000000E-07      :
          :  -> SCF convergence          0.1000000E-05 Eh   :
          :  -> wf. convergence          0.1000000E-03 e    :
          :  Broyden damping             0.4000000          :
          :  net charge                          0          :
          :  unpaired electrons                  0          :
          ...................................................

 iter      E             dE          RMSdq      gap      omega  full diag
   1   -242.1777154 -0.242178E+03  0.451E+00    2.38       0.0  T
   2   -242.4097840 -0.232069E+00  0.247E+00    1.80       1.0  T
   3   -242.3960667  0.137172E-01  0.996E-01    1.71       1.0  T
   4   -242.4314878 -0.354211E-01  0.299E-01    1.48       1.0  T
   5   -242.4362981 -0.481025E-02  0.129E-01    1.46       1.0  T
   6   -242.4369098 -0.611701E-03  0.686E-02    1.47       1.0  T
   7   -242.4370711 -0.161369E-03  0.322E-02    1.47       1.0  T
   8   -242.4371120 -0.408879E-04  0.147E-02    1.47       1.0  T
   9   -242.4371205 -0.851929E-05  0.686E-03    1.46       1.2  T
  10   -242.4371218 -0.124202E-05  0.430E-03    1.46       1.9  T
  11   -242.4371226 -0.830190E-06  0.215E-03    1.46       3.9  T
  12   -242.4371228 -0.185303E-06  0.932E-04    1.46       8.9  T
  13   -242.4371228 -0.471791E-07  0.422E-04    1.46      19.7  T

   *** convergence criteria satisfied after 13 iterations ***

         #    Occupation            Energy/Eh            Energy/eV
      -------------------------------------------------------------
         1        2.0000           -0.7805040             -21.2386
       ...           ...                  ...                  ...
       202        2.0000           -0.4058532             -11.0438
       203        2.0000           -0.4054186             -11.0320
       204        2.0000           -0.4046955             -11.0123
       205        2.0000           -0.4014462             -10.9239
       206        2.0000           -0.3868831             -10.5276
       207        2.0000           -0.3780751             -10.2879
       208        2.0000           -0.3683260             -10.0227 (HOMO)
       209                         -0.3146849              -8.5630 (LUMO)
       210                         -0.2826972              -7.6926
       211                         -0.2386009              -6.4927
       212                         -0.2350865              -6.3970
       213                         -0.2316481              -6.3035
       ...                                ...                  ...
       372                          0.6923900              18.8409
      -------------------------------------------------------------
                  HL-Gap            0.0536411 Eh            1.4596 eV
             Fermi-level           -0.3415055 Eh           -9.2928 eV

 SCC (total)                   0 d,  0 h,  0 min,  0.264 sec
 SCC setup                      ...        0 min,  0.003 sec (  1.288%)
 Dispersion                     ...        0 min,  0.004 sec (  1.608%)
 classical contributions        ...        0 min,  0.000 sec (  0.085%)
 integral evaluation            ...        0 min,  0.013 sec (  4.774%)
 iterations                     ...        0 min,  0.201 sec ( 76.418%)
 molecular gradient             ...        0 min,  0.040 sec ( 15.059%)
 printout                       ...        0 min,  0.002 sec (  0.752%)

         :::::::::::::::::::::::::::::::::::::::::::::::::::::
         ::                     SUMMARY                     ::
         :::::::::::::::::::::::::::::::::::::::::::::::::::::
         :: total energy            -239.815130801083 Eh    ::
         :: total w/o Gsasa/hb      -239.776082077369 Eh    ::
         :: gradient norm              0.124915536410 Eh/a0 ::
         :: HOMO-LUMO gap              1.459648676147 eV    ::
         ::.................................................::
         :: SCC energy              -242.421525532052 Eh    ::
         :: -> isotropic ES            0.575691692812 Eh    ::
         :: -> anisotropic ES         -0.028642565757 Eh    ::
         :: -> anisotropic XC          0.019640322994 Eh    ::
         :: -> dispersion             -0.196064996833 Eh    ::
         :: -> Gsolv                  -0.096568282675 Eh    ::
         ::    -> Gelec               -0.057519558961 Eh    ::
         ::    -> Gsasa                0.008460706234 Eh    ::
         ::    -> Ghb                 -0.048590189647 Eh    ::
         ::    -> Gshift               0.001080759698 Eh    ::
         :: repulsion energy           2.606394730969 Eh    ::
         :: add. restraining           0.000000000000 Eh    ::
         :: total charge              -0.000000000000 e     ::
         :::::::::::::::::::::::::::::::::::::::::::::::::::::

           -------------------------------------------------
          |                Property Printout                |
           -------------------------------------------------

    * Orbital Energies and Occupations

         #    Occupation            Energy/Eh            Energy/eV
      -------------------------------------------------------------
         1        2.0000           -0.7805040             -21.2386
       ...           ...                  ...                  ...
       196        2.0000           -0.4184330             -11.3861
       197        2.0000           -0.4141344             -11.2692
       198        2.0000           -0.4130608             -11.2400
       199        2.0000           -0.4119875             -11.2108
       200        2.0000           -0.4101644             -11.1611
       201        2.0000           -0.4087534             -11.1227
       202        2.0000           -0.4058532             -11.0438
       203        2.0000           -0.4054186             -11.0320
       204        2.0000           -0.4046955             -11.0123
       205        2.0000           -0.4014462             -10.9239
       206        2.0000           -0.3868831             -10.5276
       207        2.0000           -0.3780751             -10.2879
       208        2.0000           -0.3683260             -10.0227 (HOMO)
       209                         -0.3146849              -8.5630 (LUMO)
       210                         -0.2826972              -7.6926
       211                         -0.2386009              -6.4927
       212                         -0.2350865              -6.3970
       213                         -0.2316481              -6.3035
       214                         -0.2291517              -6.2355
       215                         -0.2270455              -6.1782
       216                         -0.2255189              -6.1367
       217                         -0.2228364              -6.0637
       218                         -0.1833539              -4.9893
       219                         -0.1601883              -4.3589
       ...                                ...                  ...
       372                          0.6923900              18.8409
      -------------------------------------------------------------
                  HL-Gap            0.0536411 Eh            1.4596 eV
             Fermi-level           -0.3415055 Eh           -9.2928 eV

     #   Z          covCN         q      C6AA      α(0)
     1   6 C        2.842     0.141    24.932     8.183
     2   6 C        2.970    -0.049    29.206     8.865
     3   6 C        2.964    -0.002    28.082     8.692
     4   6 C        2.929    -0.074    29.843     8.959
     5   6 C        2.836     0.148    24.782     8.158
     6   6 C        2.920    -0.099    30.498     9.056
     7   6 C        3.744     0.104    18.939     6.208
     8   6 C        3.719     0.097    19.087     6.240
     9   6 C        3.762     0.105    18.897     6.197
    10   6 C        3.744     0.095    19.077     6.231
    11   6 C        3.743     0.087    19.204     6.252
    12   8 O        1.695    -0.349    19.866     6.018
    13   6 C        3.682     0.077    19.487     6.322
    14   8 O        1.652    -0.490    22.676     6.428
    15   8 O        1.651    -0.482    22.520     6.406
    16   8 O        1.698    -0.333    19.575     5.974
    17   8 O        1.702    -0.296    18.929     5.874
    18   6 C        3.675     0.075    19.543     6.334
    19   8 O        1.654    -0.494    22.756     6.440
    20   6 C        3.640     0.251    17.049     5.938
    21   8 O        1.696    -0.360    20.080     6.050
    22   6 C        3.745     0.116    18.751     6.177
    23   6 C        3.723     0.095    19.109     6.243
    24   6 C        3.724     0.093    19.139     6.247
    25   6 C        3.755     0.089    19.153     6.240
    26   8 O        1.654    -0.487    22.617     6.420
    27   8 O        1.699    -0.323    19.399     5.946
    28   8 O        1.653    -0.495    22.790     6.444
    29   6 C        3.747     0.074    19.403     6.283
    30   8 O        1.703    -0.284    18.720     5.842
    31   6 C        2.769     0.345    21.142     7.531
    32   8 O        0.857    -0.465    23.020     6.433
    33   6 C        2.739     0.354    20.990     7.501
    34   6 C        2.896    -0.091    30.276     9.022
    35   8 O        0.858    -0.500    23.778     6.538
    36   6 C        2.907     0.008    27.840     8.652
    37   6 C        2.898    -0.048    29.183     8.857
    38   6 C        2.898    -0.001    28.052     8.684
    39   6 C        3.807    -0.080    22.031     6.682
    40   6 C        3.728     0.119    18.738     6.180
    41   6 C        2.895    -0.058    29.450     8.898
    42   8 O        1.652    -0.496    22.812     6.447
    43   6 C        2.898    -0.036    28.906     8.815
    44   6 C        2.898    -0.050    29.235     8.865
    45   6 C        2.895    -0.038    28.941     8.820
    46   6 C        3.804    -0.061    21.671     6.627
    47   6 C        3.801    -0.062    21.696     6.632
    48   6 C        3.800    -0.058    21.616     6.620
    49   6 C        3.799    -0.052    21.509     6.603
    50   6 C        3.750    -0.107    22.604     6.780
    51   8 O        1.656    -0.439    21.627     6.278
    52   8 O        1.657    -0.450    21.840     6.309
    53   6 C        3.651     0.235    17.223     5.960
    54   6 C        3.723     0.089    19.208     6.259
    55   6 C        3.723     0.099    19.043     6.232
    56   6 C        3.722     0.092    19.160     6.251
    57   6 C        3.742     0.106    18.905     6.203
    58   8 O        1.696    -0.368    20.218     6.071
    59   6 C        3.675     0.078    19.499     6.327
    60   8 O        1.653    -0.495    22.778     6.443
    61   8 O        1.654    -0.489    22.654     6.425
    62   8 O        1.653    -0.494    22.762     6.440
    63   8 O        1.652    -0.465    22.157     6.354
    64   6 C        2.974    -0.024    28.600     8.772
    65   6 C        2.927    -0.016    28.420     8.743
    66   6 C        2.926    -0.034    28.839     8.807
    67   6 C        2.977     0.023    27.495     8.601
    68   6 C        2.925    -0.035    28.860     8.810
    69   6 C        2.925    -0.028    28.710     8.787
    70   6 C        2.976    -0.003    28.106     8.696
    71   6 C        2.923    -0.036    28.895     8.815
    72   6 C        2.918    -0.072    29.798     8.952
    73   6 C        2.842     0.145    24.839     8.168
    74   6 C        2.919    -0.052    29.284     8.874
    75   6 C        2.923    -0.033    28.822     8.804
    76   8 O        1.657    -0.454    21.931     6.322
    77   1 H        0.926     0.069     2.092     2.262
    78   1 H        0.926     0.075     2.032     2.229
    79   1 H        0.924     0.045     2.390     2.417
    80   1 H        0.923     0.061     2.188     2.313
    81   1 H        0.924     0.049     2.326     2.385
    82   1 H        0.923     0.087     1.905     2.158
    83   1 H        0.924     0.059     2.208     2.324
    84   1 H        0.924     0.024     2.675     2.558
    85   1 H        0.924     0.058     2.228     2.334
    86   1 H        0.802     0.324     0.653     1.269
    87   1 H        0.802     0.330     0.637     1.253
    88   1 H        0.924     0.051     2.311     2.377
    89   1 H        0.924     0.064     2.152     2.294
    90   1 H        0.803     0.365     0.555     1.170
    91   1 H        0.923     0.003     3.007     2.712
    92   1 H        0.923     0.025     2.657     2.549
    93   1 H        0.923     0.055     2.261     2.351
    94   1 H        0.923     0.049     2.335     2.390
    95   1 H        0.923     0.089     1.893     2.152
    96   1 H        0.804     0.370     0.543     1.157
    97   1 H        0.803     0.379     0.525     1.138
    98   1 H        0.924     0.084     1.937     2.176
    99   1 H        0.924     0.095     1.832     2.117
   100   1 H        0.926     0.080     1.979     2.200
   101   1 H        0.926     0.074     2.040     2.233
   102   1 H        0.926     0.072     2.064     2.247
   103   1 H        0.926     0.072     2.060     2.245
   104   1 H        0.924     0.070     2.084     2.258
   105   1 H        0.924     0.091     1.867     2.137
   106   1 H        0.923     0.034     2.530     2.488
   107   1 H        0.926     0.045     2.379     2.412
   108   1 H        0.803     0.337     0.620     1.237
   109   1 H        0.926     0.050     2.320     2.382
   110   1 H        0.926     0.036     2.498     2.471
   111   1 H        0.926     0.038     2.482     2.463
   112   1 H        0.924     0.034     2.527     2.486
   113   1 H        0.924     0.047     2.360     2.403
   114   1 H        0.924     0.044     2.397     2.421
   115   1 H        0.924     0.029     2.604     2.523
   116   1 H        0.924     0.027     2.631     2.536
   117   1 H        0.924     0.031     2.570     2.507
   118   1 H        0.924     0.025     2.656     2.549
   119   1 H        0.923     0.025     2.664     2.552
   120   1 H        0.924     0.042     2.429     2.437
   121   1 H        0.924     0.034     2.525     2.485
   122   1 H        0.924     0.030     2.589     2.516
   123   1 H        0.803     0.349     0.590     1.207
   124   1 H        0.804     0.381     0.521     1.134
   125   1 H        0.923     0.013     2.836     2.634
   126   1 H        0.923     0.060     2.203     2.321
   127   1 H        0.923     0.034     2.526     2.485
   128   1 H        0.923     0.052     2.296     2.370
   129   1 H        0.924     0.011     2.868     2.648
   130   1 H        0.924     0.087     1.908     2.160
   131   1 H        0.924     0.053     2.278     2.360
   132   1 H        0.803     0.380     0.524     1.137
   133   1 H        0.804     0.379     0.526     1.139
   134   1 H        0.804     0.370     0.545     1.159
   135   1 H        0.801     0.302     0.717     1.330
   136   1 H        0.926     0.061     2.184     2.311
   137   1 H        0.926     0.061     2.191     2.315
   138   1 H        0.926     0.057     2.232     2.336
   139   1 H        0.926     0.071     2.076     2.253
   140   1 H        0.926     0.038     2.471     2.458
   141   1 H        0.926     0.048     2.342     2.393
   142   1 H        0.926     0.063     2.165     2.301
   143   1 H        0.926     0.047     2.356     2.400
   144   1 H        0.804     0.371     0.541     1.155

 Mol. C6AA /au·bohr⁶  :     209105.102171
 Mol. C8AA /au·bohr⁸  :    4805183.113943
 Mol. α(0) /au        :        690.839742


Wiberg/Mayer (AO) data.
largest (>0.10) Wiberg bond orders for each atom

 ---------------------------------------------------------------------------
     #   Z sym  total        # sym  WBO       # sym  WBO       # sym  WBO
 ---------------------------------------------------------------------------
     1   6 C    3.944 --     6 C    1.390     2 C    1.335    51 O    1.074
     2   6 C    3.970 --     3 C    1.387     1 C    1.335     7 C    0.991
     3   6 C    3.987 --     4 C    1.430     2 C    1.387    13 C    1.001
     4   6 C    3.983 --     3 C    1.430     5 C    1.359    77 H    0.964
     5   6 C    3.945 --     6 C    1.380     4 C    1.359    52 O    1.079
     6   6 C    3.978 --     1 C    1.390     5 C    1.380    78 H    0.961
     7   6 C    3.937 --     2 C    0.991     8 C    0.951    79 H    0.950
                            12 O    0.947
     8   6 C    3.948 --    15 O    0.987     9 C    0.966    80 H    0.957
                             7 C    0.951
     9   6 C    3.927 --    10 C    0.970     8 C    0.966    81 H    0.947
                            17 O    0.938
    10   6 C    3.932 --     9 C    0.970    16 O    0.960    11 C    0.960
                            82 H    0.953
    11   6 C    3.941 --    18 C    0.982    12 O    0.962    10 C    0.960
                            83 H    0.945
    12   8 O    2.079 --    11 C    0.962     7 C    0.947
    13   6 C    3.957 --     3 C    1.001    14 O    0.987    85 H    0.968
                            84 H    0.956
    14   8 O    1.933 --    13 C    0.987    86 H    0.842
    15   8 O    1.957 --     8 C    0.987    87 H    0.836
    16   8 O    2.085 --    20 C    0.980    10 C    0.960
    17   8 O    2.262 --    33 C    1.087     9 C    0.938    35 O    0.141
    18   6 C    3.958 --    19 O    1.010    11 C    0.982    89 H    0.967
                            88 H    0.965
    19   8 O    1.918 --    18 C    1.010    90 H    0.848
    20   6 C    3.925 --    16 O    0.980    21 O    0.957    25 C    0.955
                            91 H    0.941
    21   8 O    2.059 --    20 C    0.957    22 C    0.947
    22   6 C    3.938 --    29 C    0.980    23 C    0.970    92 H    0.952
                            21 O    0.947
    23   6 C    3.966 --    28 O    1.006    22 C    0.970    24 C    0.967
                            93 H    0.953
    24   6 C    3.962 --    26 O    1.001    23 C    0.967    25 C    0.964
                            94 H    0.950
    25   6 C    3.939 --    27 O    0.965    24 C    0.964    20 C    0.955
                            95 H    0.952
    26   8 O    1.927 --    24 C    1.001    96 H    0.844
    27   8 O    2.090 --    53 C    0.981    25 C    0.965
    28   8 O    1.913 --    23 C    1.006    97 H    0.834
    29   6 C    3.927 --    22 C    0.980    99 H    0.963    30 O    0.963
                            98 H    0.959
    30   8 O    2.258 --    31 C    1.073    29 C    0.963    32 O    0.145
    31   6 C    3.893 --    32 O    1.692    30 O    1.073    64 C    1.033
    32   8 O    1.986 --    31 C    1.692    30 O    0.145
    33   6 C    3.892 --    35 O    1.591    34 C    1.091    17 O    1.087
    34   6 C    3.964 --    36 C    1.690    33 C    1.091   100 H    0.960
                            38 C    0.106
    35   8 O    1.974 --    33 C    1.591    17 O    0.141
    36   6 C    3.969 --    34 C    1.690    37 C    1.173   101 H    0.952
    37   6 C    3.985 --    38 C    1.761    36 C    1.173   102 H    0.957
    38   6 C    3.964 --    37 C    1.761    39 C    1.049   103 H    0.956
                            34 C    0.106
    39   6 C    3.984 --    38 C    1.049   104 H    0.964    40 C    0.956
                           105 H    0.934
    40   6 C    3.951 --    41 C    1.009    42 O    0.983    39 C    0.956
                           106 H    0.953
    41   6 C    3.985 --    43 C    1.832    40 C    1.009   107 H    0.964
                            45 C    0.130
    42   8 O    1.925 --    40 C    0.983   108 H    0.870
    43   6 C    3.990 --    41 C    1.832    44 C    1.124   109 H    0.960
    44   6 C    3.990 --    45 C    1.829    43 C    1.124   110 H    0.962
    45   6 C    3.980 --    44 C    1.829    46 C    1.029   111 H    0.964
                            41 C    0.130
    46   6 C    3.996 --    45 C    1.029    47 C    0.991   112 H    0.977
                           113 H    0.958
    47   6 C    3.993 --    48 C    1.007    46 C    0.991   115 H    0.974
                           114 H    0.965
    48   6 C    3.996 --    47 C    1.007    49 C    1.006   117 H    0.977
                           116 H    0.976
    49   6 C    3.995 --    50 C    1.020    48 C    1.006   118 H    0.976
                           119 H    0.972
    50   6 C    3.996 --    49 C    1.020   122 H    0.987   120 H    0.986
                           121 H    0.984
    51   8 O    2.081 --     1 C    1.074   123 H    0.832
    52   8 O    2.076 --     5 C    1.079   124 H    0.837
    53   6 C    3.918 --    27 O    0.981    54 C    0.956    58 O    0.951
                           125 H    0.944
    54   6 C    3.958 --    62 O    1.000    55 C    0.970    53 C    0.956
                           126 H    0.955
    55   6 C    3.966 --    61 O    1.003    54 C    0.970    56 C    0.967
                           127 H    0.959
    56   6 C    3.966 --    60 O    1.008    55 C    0.967    57 C    0.966
                           128 H    0.957
    57   6 C    3.936 --    59 C    0.982    56 C    0.966    58 O    0.950
                           129 H    0.945
    58   8 O    2.056 --    53 C    0.951    57 C    0.950
    59   6 C    3.947 --    63 O    1.001    57 C    0.982   131 H    0.963
                           130 H    0.961
    60   8 O    1.914 --    56 C    1.008   132 H    0.833
    61   8 O    1.925 --    55 C    1.003   133 H    0.840
    62   8 O    1.917 --    54 C    1.000   134 H    0.844
    63   8 O    1.956 --    59 C    1.001   135 H    0.861
    64   6 C    3.975 --    69 C    1.366    65 C    1.362    31 C    1.033
    65   6 C    3.985 --    66 C    1.473    64 C    1.362   136 H    0.958
    66   6 C    3.986 --    65 C    1.473    67 C    1.371   137 H    0.960
    67   6 C    3.985 --    66 C    1.371    68 C    1.369    70 C    1.058
    68   6 C    3.987 --    69 C    1.474    67 C    1.369   138 H    0.965
    69   6 C    3.984 --    68 C    1.474    64 C    1.366   139 H    0.954
    70   6 C    3.987 --    71 C    1.374    75 C    1.370    67 C    1.058
    71   6 C    3.988 --    72 C    1.469    70 C    1.374   140 H    0.967
                            74 C    0.100
    72   6 C    3.986 --    71 C    1.469    73 C    1.362   141 H    0.965
    73   6 C    3.932 --    72 C    1.362    74 C    1.356    76 O    1.073
    74   6 C    3.988 --    75 C    1.476    73 C    1.356   142 H    0.965
                            71 C    0.100
    75   6 C    3.988 --    74 C    1.476    70 C    1.370   143 H    0.965
    76   8 O    2.070 --    73 C    1.073   144 H    0.843
    77   1 H    0.995 --     4 C    0.964
    78   1 H    0.994 --     6 C    0.961
    79   1 H    0.998 --     7 C    0.950
    80   1 H    0.996 --     8 C    0.957
    81   1 H    0.997 --     9 C    0.947
    82   1 H    0.992 --    10 C    0.953
    83   1 H    0.996 --    11 C    0.945
    84   1 H    0.999 --    13 C    0.956
    85   1 H    0.996 --    13 C    0.968
    86   1 H    0.895 --    14 O    0.842
    87   1 H    0.891 --    15 O    0.836
    88   1 H    0.997 --    18 C    0.965
    89   1 H    0.995 --    18 C    0.967
    90   1 H    0.867 --    19 O    0.848
    91   1 H    1.000 --    20 C    0.941
    92   1 H    0.999 --    22 C    0.952
    93   1 H    0.997 --    23 C    0.953
    94   1 H    0.998 --    24 C    0.950
    95   1 H    0.992 --    25 C    0.952
    96   1 H    0.862 --    26 O    0.844
    97   1 H    0.856 --    28 O    0.834
    98   1 H    0.992 --    29 C    0.959
    99   1 H    0.990 --    29 C    0.963
   100   1 H    0.993 --    34 C    0.960
   101   1 H    0.994 --    36 C    0.952
   102   1 H    0.995 --    37 C    0.957
   103   1 H    0.995 --    38 C    0.956
   104   1 H    0.994 --    39 C    0.964
   105   1 H    0.981 --    39 C    0.934
   106   1 H    0.994 --    40 C    0.953
   107   1 H    0.998 --    41 C    0.964
   108   1 H    0.886 --    42 O    0.870
   109   1 H    0.997 --    43 C    0.960
   110   1 H    0.999 --    44 C    0.962
   111   1 H    0.998 --    45 C    0.964
   112   1 H    0.998 --    46 C    0.977
   113   1 H    0.997 --    46 C    0.958
   114   1 H    0.998 --    47 C    0.965
   115   1 H    0.999 --    47 C    0.974
   116   1 H    0.999 --    48 C    0.976
   117   1 H    0.999 --    48 C    0.977
   118   1 H    0.999 --    49 C    0.976
   119   1 H    0.999 --    49 C    0.972
   120   1 H    0.998 --    50 C    0.986
   121   1 H    0.998 --    50 C    0.984
   122   1 H    0.999 --    50 C    0.987
   123   1 H    0.878 --    51 O    0.832
   124   1 H    0.854 --    52 O    0.837
   125   1 H    1.000 --    53 C    0.944
   126   1 H    0.996 --    54 C    0.955
   127   1 H    0.999 --    55 C    0.959
   128   1 H    0.997 --    56 C    0.957
   129   1 H    1.000 --    57 C    0.945
   130   1 H    0.992 --    59 C    0.961
   131   1 H    0.996 --    59 C    0.963
   132   1 H    0.856 --    60 O    0.833
   133   1 H    0.856 --    61 O    0.840
   134   1 H    0.863 --    62 O    0.844
   135   1 H    0.909 --    63 O    0.861
   136   1 H    0.996 --    65 C    0.958
   137   1 H    0.996 --    66 C    0.960
   138   1 H    0.996 --    68 C    0.965
   139   1 H    0.994 --    69 C    0.954
   140   1 H    0.999 --    71 C    0.967
   141   1 H    0.997 --    72 C    0.965
   142   1 H    0.995 --    74 C    0.965
   143   1 H    0.997 --    75 C    0.965
   144   1 H    0.862 --    76 O    0.843
 ---------------------------------------------------------------------------

Topologies differ in total number of bonds
Writing topology from bond orders to xtbtopo.mol

molecular dipole:
                 x           y           z       tot (Debye)
 q only:        2.372       2.288       4.894
   full:        2.223       2.035       5.667      16.314
molecular quadrupole (traceless):
                xx          xy          yy          xz          yz          zz
 q only:        2.212       7.988      17.647      20.867      15.000     -19.859
  q+dip:      -11.020       6.675      18.517      19.803      23.530      -7.498
   full:      -11.011       7.144      19.478      20.765      20.229      -8.467


           -------------------------------------------------
          | TOTAL ENERGY             -239.815130801083 Eh   |
          | GRADIENT NORM               0.124915536410 Eh/α |
          | HOMO-LUMO GAP               1.459648676147 eV   |
           -------------------------------------------------

------------------------------------------------------------------------
 * finished run on 2026/06/19 at 18:53:11.768     
------------------------------------------------------------------------
 total:
 * wall-time:     0 d,  0 h,  0 min,  0.316 sec
 *  cpu-time:     0 d,  0 h,  0 min,  4.763 sec
 * ratio c/w:    15.089 speedup
 SCF:
 * wall-time:     0 d,  0 h,  0 min,  0.264 sec
 *  cpu-time:     0 d,  0 h,  0 min,  4.136 sec
 * ratio c/w:    15.642 speedup

normal termination of xtb
