      -----------------------------------------------------------      
     |                   =====================                   |     
     |                           x T B                           |     
     |                   =====================                   |     
     |                         S. Grimme                         |     
     |          Mulliken Center for Theoretical Chemistry        |     
     |                    University of Bonn                     |     
      -----------------------------------------------------------      

   * xtb version 6.7.1 (edcfbbe) compiled by 'albert@albert-system' on 2024-07-22

   xtb is free software: you can redistribute it and/or modify it under
   the terms of the GNU Lesser General Public License as published by
   the Free Software Foundation, either version 3 of the License, or
   (at your option) any later version.
   
   xtb is distributed in the hope that it will be useful,
   but WITHOUT ANY WARRANTY; without even the implied warranty of
   MERCHANTABILITY or FITNESS FOR A PARTICULAR PURPOSE.  See the
   GNU Lesser General Public License for more details.
   
   Cite this work as:
   * C. Bannwarth, E. Caldeweyher, S. Ehlert, A. Hansen, P. Pracht,
     J. Seibert, S. Spicher, S. Grimme, WIREs Comput. Mol. Sci., 2020, 11,
     e01493. DOI: 10.1002/wcms.1493
   
   for GFN2-xTB:
   * C. Bannwarth, S. Ehlert and S. Grimme., J. Chem. Theory Comput., 2019,
     15, 1652-1671. DOI: 10.1021/acs.jctc.8b01176
   for GFN1-xTB:
   * S. Grimme, C. Bannwarth, P. Shushkov, J. Chem. Theory Comput., 2017,
     13, 1989-2009. DOI: 10.1021/acs.jctc.7b00118
   for GFN0-xTB:
   * P. Pracht, E. Caldeweyher, S. Ehlert, S. Grimme, ChemRxiv, 2019, preprint.
     DOI: 10.26434/chemrxiv.8326202.v1
   for GFN-FF:
   * S. Spicher and S. Grimme, Angew. Chem. Int. Ed., 2020, 59, 15665-15673.
     DOI: 10.1002/anie.202004239
   
   for ALPB and GBSA implicit solvation:
   * S. Ehlert, M. Stahn, S. Spicher, S. Grimme, J. Chem. Theory Comput.,
     2021, 17, 4250-4261. DOI: 10.1021/acs.jctc.1c00471
   
   for ddCOSMO and CPCM-X implicit solvation:
   * M. Stahn, S. Ehlert, S. Grimme, J. Phys. Chem. A,
     2023, XX, XXXX-XXXX. DOI: 10.1021/acs.jpca.3c04382
   
   for DFT-D4:
   * E. Caldeweyher, C. Bannwarth and S. Grimme, J. Chem. Phys., 2017,
     147, 034112. DOI: 10.1063/1.4993215
   * E. Caldeweyher, S. Ehlert, A. Hansen, H. Neugebauer, S. Spicher,
     C. Bannwarth and S. Grimme, J. Chem. Phys., 2019, 150, 154122.
     DOI: 10.1063/1.5090222
   * E. Caldeweyher, J.-M. Mewes, S. Ehlert and S. Grimme, Phys. Chem. Chem. Phys.
     2020, 22, 8499-8512. DOI: 10.1039/D0CP00502A
   
   for sTDA-xTB:
   * S. Grimme and C. Bannwarth, J. Chem. Phys., 2016, 145, 054103.
     DOI: 10.1063/1.4959605
   
   in the mass-spec context:
   * V. Asgeirsson, C. Bauer and S. Grimme, Chem. Sci., 2017, 8, 4879.
     DOI: 10.1039/c7sc00601b
   * J. Koopman and S. Grimme, ACS Omega 2019, 4, 12, 15120-15133.
     DOI: 10.1021/acsomega.9b02011
   
   for metadynamics refer to:
   * S. Grimme, J. Chem. Theory Comput., 2019, 155, 2847-2862
     DOI: 10.1021/acs.jctc.9b00143
   
   for SPH calculations refer to:
   * S. Spicher and S. Grimme, J. Chem. Theory Comput., 2021, 17, 1701-1714
     DOI: 10.1021/acs.jctc.0c01306
   
   for ONIOM refer to:
   * C. Plett, A. Katbashev, S. Ehlert, S. Grimme, M. Bursch,
     Phys. Chem. Chem. Phys., 2023, 25, 17860-17868. DOI: 10.1039/D3CP02178E
   
   for DIPRO refer to:
   * J. Kohn, N. Gildemeister, S. Grimme, D. Fazzi, A. Hansen,
     J. Chem. Phys., 2023, just accepted.
   
   for PTB refer to:
   * S. Grimme, M. Mueller, A. Hansen, J. Chem. Phys., 2023, 158, 124111.
     DOI: 10.1063/5.0137838
   
   with help from (in alphabetical order)
   P. Atkinson, C. Bannwarth, F. Bohle, G. Brandenburg, E. Caldeweyher
   M. Checinski, S. Dohm, S. Ehlert, S. Ehrlich, I. Gerasimov, C. Hölzer
   A. Katbashev, J. Kohn, J. Koopman, C. Lavigne, S. Lehtola, F. März, M. Müller,
   F. Musil, H. Neugebauer, J. Pisarek, C. Plett, P. Pracht, F. Pultar,
   J. Seibert, P. Shushkov, S. Spicher, M. Stahn, M. Steiner, T. Strunk,
   J. Stückrath, T. Rose, and J. Unsleber
   
 * started run on 2026/06/19 at 18:53:12.105     
   ID    Z sym.   atoms
    1    6 C      1-11, 13, 18, 20, 22-25, 29, 31, 33, 34, 36-41, 43-50,
                  53-57, 59, 64-75
    2    8 O      12, 14-17, 19, 21, 26-28, 30, 32, 35, 42, 51, 52, 58,
                  60-63, 76
    3    1 H      77-144

           -------------------------------------------------
          |                Calculation Setup                |
           -------------------------------------------------

          program call               : xtb PAPU-0091/conf05.xyz --gfn 2 --alpb water --chrg 0 --uhf 0 --namespace PAPU-0091/conf05_water
          hostname                   : cpu10
          calculation namespace      : PAPU-0091/conf05_water
          coordinate file            : PAPU-0091/conf05.xyz
          omp threads                :                    16


           -------------------------------------------------
          |                 G F N 2 - x T B                 |
           -------------------------------------------------

        Reference                      10.1021/acs.jctc.8b01176
      * Hamiltonian:
        H0-scaling (s, p, d)           1.850000    2.230000    2.230000
        zeta-weighting                 0.500000
      * Dispersion:
        s8                             2.700000
        a1                             0.520000
        a2                             5.000000
        s9                             5.000000
      * Repulsion:
        kExp                           1.500000    1.000000
        rExp                           1.000000
      * Coulomb:
        alpha                          2.000000
        third order                    shell-resolved
        anisotropic                    true
        a3                             3.000000
        a5                             4.000000
        cn-shift                       1.200000
        cn-exp                         4.000000
        max-rad                        5.000000

      * Solvation model:               ALPB
        Solvent                        water
        Parameter file                 internal GFN2-xTB/ALPB
        Dielectric constant                8.0200E+01
        Reference state                gsolv [1 M gas/solution]
        Free energy shift                  1.0808E-03 Eh       6.7819E-01 kcal/mol
        Temperature                        2.9815E+02 K
        Density                            1.0000E+00 kg/L
        Solvent mass                       1.8000E+01 g/mol
        Interaction kernel             P16
        Born radius scaling (c1)           1.4744E+00
        Born radii integrator          GBOBC
        Born offset                        0.0000E+00 a0       0.0000E+00 AA
        H-bond correction              true
        Ion screening                  false
        Surface tension                    1.0000E-05 Eh       1.5569E+01 dyn/cm
        Grid points                               230 per atom

          ...................................................
          :                      SETUP                      :
          :.................................................:
          :  # basis functions                 372          :
          :  # atomic orbitals                 372          :
          :  # shells                          220          :
          :  # electrons                       416          :
          :  max. iterations                   250          :
          :  Hamiltonian                  GFN2-xTB          :
          :  restarted?                      false          :
          :  GBSA solvation                   true          :
          :  PC potential                    false          :
          :  electronic temp.          300.0000000     K    :
          :  accuracy                    1.0000000          :
          :  -> integral cutoff          0.2500000E+02      :
          :  -> integral neglect         0.1000000E-07      :
          :  -> SCF convergence          0.1000000E-05 Eh   :
          :  -> wf. convergence          0.1000000E-03 e    :
          :  Broyden damping             0.4000000          :
          :  net charge                          0          :
          :  unpaired electrons                  0          :
          ...................................................

 iter      E             dE          RMSdq      gap      omega  full diag
   1   -242.1955272 -0.242196E+03  0.450E+00    2.32       0.0  T
   2   -242.4199137 -0.224387E+00  0.248E+00    1.99       1.0  T
   3   -242.4012311  0.186827E-01  0.102E+00    2.06       1.0  T
   4   -242.4406346 -0.394035E-01  0.314E-01    1.86       1.0  T
   5   -242.4464490 -0.581439E-02  0.134E-01    1.84       1.0  T
   6   -242.4471583 -0.709354E-03  0.690E-02    1.83       1.0  T
   7   -242.4473112 -0.152902E-03  0.312E-02    1.83       1.0  T
   8   -242.4473484 -0.371494E-04  0.133E-02    1.82       1.0  T
   9   -242.4473553 -0.687701E-05  0.652E-03    1.82       1.3  T
  10   -242.4473565 -0.119860E-05  0.374E-03    1.82       2.2  T
  11   -242.4473571 -0.591378E-06  0.213E-03    1.82       3.9  T
  12   -242.4473573 -0.194664E-06  0.915E-04    1.82       9.1  T
  13   -242.4473573 -0.431588E-07  0.449E-04    1.82      18.6  T

   *** convergence criteria satisfied after 13 iterations ***

         #    Occupation            Energy/Eh            Energy/eV
      -------------------------------------------------------------
         1        2.0000           -0.7647653             -20.8103
       ...           ...                  ...                  ...
       202        2.0000           -0.4066491             -11.0655
       203        2.0000           -0.4046059             -11.0099
       204        2.0000           -0.4008350             -10.9073
       205        2.0000           -0.4005151             -10.8986
       206        2.0000           -0.3860475             -10.5049
       207        2.0000           -0.3772623             -10.2658
       208        2.0000           -0.3715675             -10.1109 (HOMO)
       209                         -0.3047930              -8.2938 (LUMO)
       210                         -0.2885548              -7.8520
       211                         -0.2393737              -6.5137
       212                         -0.2352855              -6.4024
       213                         -0.2304653              -6.2713
       ...                                ...                  ...
       372                          0.6906118              18.7925
      -------------------------------------------------------------
                  HL-Gap            0.0667745 Eh            1.8170 eV
             Fermi-level           -0.3381803 Eh           -9.2024 eV

 SCC (total)                   0 d,  0 h,  0 min,  0.265 sec
 SCC setup                      ...        0 min,  0.003 sec (  1.248%)
 Dispersion                     ...        0 min,  0.005 sec (  1.753%)
 classical contributions        ...        0 min,  0.000 sec (  0.049%)
 integral evaluation            ...        0 min,  0.011 sec (  4.179%)
 iterations                     ...        0 min,  0.205 sec ( 77.224%)
 molecular gradient             ...        0 min,  0.040 sec ( 14.937%)
 printout                       ...        0 min,  0.002 sec (  0.595%)

         :::::::::::::::::::::::::::::::::::::::::::::::::::::
         ::                     SUMMARY                     ::
         :::::::::::::::::::::::::::::::::::::::::::::::::::::
         :: total energy            -239.824970522043 Eh    ::
         :: total w/o Gsasa/hb      -239.783992525059 Eh    ::
         :: gradient norm              0.123041078657 Eh/a0 ::
         :: HOMO-LUMO gap              1.817025345406 eV    ::
         ::.................................................::
         :: SCC energy              -242.432715704888 Eh    ::
         :: -> isotropic ES            0.577957560193 Eh    ::
         :: -> anisotropic ES         -0.035737739951 Eh    ::
         :: -> anisotropic XC          0.019185892824 Eh    ::
         :: -> dispersion             -0.197362092902 Eh    ::
         :: -> Gsolv                  -0.098842798216 Eh    ::
         ::    -> Gelec               -0.057864801232 Eh    ::
         ::    -> Gsasa                0.007856128819 Eh    ::
         ::    -> Ghb                 -0.049914885501 Eh    ::
         ::    -> Gshift               0.001080759698 Eh    ::
         :: repulsion energy           2.607745182845 Eh    ::
         :: add. restraining           0.000000000000 Eh    ::
         :: total charge              -0.000000000000 e     ::
         :::::::::::::::::::::::::::::::::::::::::::::::::::::

           -------------------------------------------------
          |                Property Printout                |
           -------------------------------------------------

    * Orbital Energies and Occupations

         #    Occupation            Energy/Eh            Energy/eV
      -------------------------------------------------------------
         1        2.0000           -0.7647653             -20.8103
       ...           ...                  ...                  ...
       196        2.0000           -0.4197776             -11.4227
       197        2.0000           -0.4155258             -11.3070
       198        2.0000           -0.4148606             -11.2889
       199        2.0000           -0.4138657             -11.2619
       200        2.0000           -0.4121428             -11.2150
       201        2.0000           -0.4078726             -11.0988
       202        2.0000           -0.4066491             -11.0655
       203        2.0000           -0.4046059             -11.0099
       204        2.0000           -0.4008350             -10.9073
       205        2.0000           -0.4005151             -10.8986
       206        2.0000           -0.3860475             -10.5049
       207        2.0000           -0.3772623             -10.2658
       208        2.0000           -0.3715675             -10.1109 (HOMO)
       209                         -0.3047930              -8.2938 (LUMO)
       210                         -0.2885548              -7.8520
       211                         -0.2393737              -6.5137
       212                         -0.2352855              -6.4024
       213                         -0.2304653              -6.2713
       214                         -0.2296457              -6.2490
       215                         -0.2265628              -6.1651
       216                         -0.2226488              -6.0586
       217                         -0.2208411              -6.0094
       218                         -0.1839990              -5.0069
       219                         -0.1523559              -4.1458
       ...                                ...                  ...
       372                          0.6906118              18.7925
      -------------------------------------------------------------
                  HL-Gap            0.0667745 Eh            1.8170 eV
             Fermi-level           -0.3381803 Eh           -9.2024 eV

     #   Z          covCN         q      C6AA      α(0)
     1   6 C        2.841     0.143    24.886     8.175
     2   6 C        2.972    -0.046    29.139     8.854
     3   6 C        2.964     0.002    27.982     8.677
     4   6 C        2.928    -0.075    29.882     8.965
     5   6 C        2.837     0.148    24.770     8.156
     6   6 C        2.920    -0.098    30.478     9.053
     7   6 C        3.750     0.100    18.987     6.214
     8   6 C        3.722     0.098    19.063     6.235
     9   6 C        3.776     0.097    19.007     6.212
    10   6 C        3.742     0.094    19.093     6.234
    11   6 C        3.743     0.086    19.227     6.255
    12   8 O        1.694    -0.354    19.958     6.032
    13   6 C        3.680     0.078    19.485     6.322
    14   8 O        1.652    -0.494    22.774     6.442
    15   8 O        1.651    -0.488    22.637     6.423
    16   8 O        1.698    -0.340    19.712     5.994
    17   8 O        1.703    -0.287    18.765     5.849
    18   6 C        3.675     0.074    19.558     6.337
    19   8 O        1.654    -0.494    22.763     6.441
    20   6 C        3.640     0.250    17.062     5.940
    21   8 O        1.695    -0.358    20.034     6.043
    22   6 C        3.747     0.113    18.788     6.182
    23   6 C        3.723     0.095    19.114     6.243
    24   6 C        3.724     0.090    19.190     6.255
    25   6 C        3.752     0.089    19.167     6.243
    26   8 O        1.654    -0.482    22.516     6.406
    27   8 O        1.699    -0.324    19.420     5.950
    28   8 O        1.653    -0.495    22.796     6.445
    29   6 C        3.742     0.075    19.404     6.284
    30   8 O        1.703    -0.288    18.793     5.853
    31   6 C        2.764     0.347    21.111     7.524
    32   8 O        0.857    -0.461    22.948     6.423
    33   6 C        2.750     0.357    20.946     7.494
    34   6 C        2.896    -0.091    30.284     9.023
    35   8 O        0.858    -0.500    23.789     6.539
    36   6 C        2.907     0.004    27.937     8.667
    37   6 C        2.898    -0.050    29.236     8.865
    38   6 C        2.898    -0.002    28.087     8.690
    39   6 C        3.807    -0.071    21.852     6.655
    40   6 C        3.728     0.118    18.752     6.182
    41   6 C        2.895    -0.069    29.713     8.937
    42   8 O        1.652    -0.505    22.990     6.473
    43   6 C        2.898    -0.037    28.926     8.818
    44   6 C        2.898    -0.052    29.279     8.872
    45   6 C        2.895    -0.037    28.912     8.816
    46   6 C        3.805    -0.063    21.697     6.631
    47   6 C        3.801    -0.061    21.679     6.629
    48   6 C        3.801    -0.061    21.664     6.627
    49   6 C        3.799    -0.052    21.515     6.604
    50   6 C        3.751    -0.106    22.597     6.779
    51   8 O        1.656    -0.436    21.570     6.270
    52   8 O        1.657    -0.449    21.819     6.306
    53   6 C        3.648     0.238    17.198     5.958
    54   6 C        3.723     0.089    19.202     6.258
    55   6 C        3.723     0.100    19.040     6.231
    56   6 C        3.722     0.091    19.181     6.255
    57   6 C        3.742     0.106    18.909     6.204
    58   8 O        1.695    -0.365    20.166     6.063
    59   6 C        3.676     0.076    19.537     6.333
    60   8 O        1.653    -0.486    22.587     6.416
    61   8 O        1.654    -0.488    22.646     6.424
    62   8 O        1.653    -0.494    22.764     6.441
    63   8 O        1.652    -0.467    22.187     6.359
    64   6 C        2.973    -0.022    28.556     8.766
    65   6 C        2.926    -0.015    28.375     8.736
    66   6 C        2.925    -0.033    28.818     8.804
    67   6 C        2.976     0.026    27.428     8.591
    68   6 C        2.925    -0.035    28.878     8.813
    69   6 C        2.924    -0.025    28.621     8.773
    70   6 C        2.975    -0.002    28.077     8.692
    71   6 C        2.923    -0.031    28.767     8.796
    72   6 C        2.918    -0.064    29.599     8.922
    73   6 C        2.842     0.145    24.834     8.167
    74   6 C        2.919    -0.059    29.465     8.901
    75   6 C        2.923    -0.035    28.866     8.811
    76   8 O        1.657    -0.458    22.016     6.334
    77   1 H        0.926     0.070     2.082     2.256
    78   1 H        0.926     0.075     2.029     2.228
    79   1 H        0.924     0.039     2.457     2.451
    80   1 H        0.923     0.060     2.201     2.320
    81   1 H        0.924     0.060     2.194     2.316
    82   1 H        0.923     0.078     1.999     2.211
    83   1 H        0.924     0.060     2.198     2.318
    84   1 H        0.924     0.035     2.520     2.482
    85   1 H        0.924     0.051     2.307     2.375
    86   1 H        0.802     0.333     0.629     1.246
    87   1 H        0.802     0.339     0.616     1.233
    88   1 H        0.924     0.049     2.333     2.389
    89   1 H        0.924     0.064     2.152     2.294
    90   1 H        0.804     0.366     0.553     1.168
    91   1 H        0.923     0.007     2.937     2.680
    92   1 H        0.923     0.034     2.533     2.489
    93   1 H        0.923     0.054     2.269     2.356
    94   1 H        0.923     0.056     2.247     2.344
    95   1 H        0.923     0.087     1.912     2.163
    96   1 H        0.804     0.364     0.557     1.172
    97   1 H        0.803     0.378     0.528     1.141
    98   1 H        0.924     0.089     1.893     2.152
    99   1 H        0.924     0.093     1.854     2.129
   100   1 H        0.926     0.081     1.968     2.194
   101   1 H        0.926     0.068     2.112     2.273
   102   1 H        0.926     0.071     2.078     2.254
   103   1 H        0.926     0.073     2.057     2.243
   104   1 H        0.924     0.073     2.049     2.238
   105   1 H        0.924     0.089     1.888     2.149
   106   1 H        0.923     0.030     2.588     2.516
   107   1 H        0.926     0.043     2.412     2.429
   108   1 H        0.804     0.346     0.597     1.214
   109   1 H        0.926     0.043     2.404     2.425
   110   1 H        0.926     0.039     2.460     2.453
   111   1 H        0.926     0.037     2.489     2.467
   112   1 H        0.924     0.041     2.436     2.441
   113   1 H        0.924     0.042     2.428     2.437
   114   1 H        0.924     0.043     2.414     2.430
   115   1 H        0.924     0.034     2.535     2.490
   116   1 H        0.924     0.031     2.572     2.508
   117   1 H        0.924     0.031     2.568     2.506
   118   1 H        0.924     0.031     2.578     2.511
   119   1 H        0.924     0.024     2.678     2.559
   120   1 H        0.924     0.037     2.483     2.464
   121   1 H        0.924     0.036     2.498     2.472
   122   1 H        0.924     0.027     2.630     2.536
   123   1 H        0.803     0.353     0.582     1.199
   124   1 H        0.804     0.381     0.521     1.134
   125   1 H        0.923     0.005     2.980     2.699
   126   1 H        0.923     0.061     2.193     2.316
   127   1 H        0.923     0.031     2.569     2.506
   128   1 H        0.923     0.050     2.317     2.380
   129   1 H        0.923     0.008     2.926     2.675
   130   1 H        0.924     0.089     1.887     2.148
   131   1 H        0.924     0.050     2.316     2.380
   132   1 H        0.803     0.374     0.535     1.149
   133   1 H        0.804     0.379     0.525     1.138
   134   1 H        0.804     0.368     0.547     1.162
   135   1 H        0.801     0.302     0.716     1.329
   136   1 H        0.926     0.061     2.182     2.310
   137   1 H        0.926     0.062     2.174     2.305
   138   1 H        0.926     0.056     2.244     2.343
   139   1 H        0.926     0.062     2.172     2.305
   140   1 H        0.926     0.054     2.267     2.355
   141   1 H        0.926     0.057     2.238     2.339
   142   1 H        0.926     0.052     2.293     2.368
   143   1 H        0.926     0.039     2.457     2.451
   144   1 H        0.804     0.375     0.534     1.148

 Mol. C6AA /au·bohr⁶  :     209113.209997
 Mol. C8AA /au·bohr⁸  :    4805456.930155
 Mol. α(0) /au        :        690.843833


Wiberg/Mayer (AO) data.
largest (>0.10) Wiberg bond orders for each atom

 ---------------------------------------------------------------------------
     #   Z sym  total        # sym  WBO       # sym  WBO       # sym  WBO
 ---------------------------------------------------------------------------
     1   6 C    3.944 --     6 C    1.388     2 C    1.334    51 O    1.078
     2   6 C    3.971 --     3 C    1.386     1 C    1.334     7 C    0.994
     3   6 C    3.987 --     4 C    1.430     2 C    1.386    13 C    1.003
     4   6 C    3.983 --     3 C    1.430     5 C    1.358    77 H    0.964
     5   6 C    3.945 --     6 C    1.380     4 C    1.358    52 O    1.080
     6   6 C    3.978 --     1 C    1.388     5 C    1.380    78 H    0.961
     7   6 C    3.938 --     2 C    0.994    79 H    0.950     8 C    0.948
                            12 O    0.946
     8   6 C    3.956 --    15 O    1.007    80 H    0.958     9 C    0.956
                             7 C    0.948
     9   6 C    3.923 --    10 C    0.966     8 C    0.956    17 O    0.943
                            81 H    0.939
    10   6 C    3.930 --     9 C    0.966    11 C    0.958    16 O    0.958
                            82 H    0.955
    11   6 C    3.941 --    18 C    0.983    12 O    0.961    10 C    0.958
                            83 H    0.945
    12   8 O    2.066 --    11 C    0.961     7 C    0.946
    13   6 C    3.949 --     3 C    1.003    14 O    0.972    85 H    0.967
                            84 H    0.961
    14   8 O    1.951 --    13 C    0.972    86 H    0.844
    15   8 O    1.936 --     8 C    1.007    87 H    0.830
    16   8 O    2.077 --    20 C    0.977    10 C    0.958
    17   8 O    2.274 --    33 C    1.096     9 C    0.943    35 O    0.143
    18   6 C    3.958 --    19 O    1.010    11 C    0.983    89 H    0.967
                            88 H    0.966
    19   8 O    1.919 --    18 C    1.010    90 H    0.850
    20   6 C    3.924 --    16 O    0.977    21 O    0.957    25 C    0.956
                            91 H    0.939
    21   8 O    2.063 --    20 C    0.957    22 C    0.946
    22   6 C    3.936 --    29 C    0.981    23 C    0.970    92 H    0.949
                            21 O    0.946
    23   6 C    3.966 --    28 O    1.005    22 C    0.970    24 C    0.967
                            93 H    0.953
    24   6 C    3.960 --    26 O    0.999    23 C    0.967    25 C    0.965
                            94 H    0.945
    25   6 C    3.938 --    24 C    0.965    27 O    0.965    20 C    0.956
                            95 H    0.952
    26   8 O    1.932 --    24 C    0.999    96 H    0.848
    27   8 O    2.091 --    53 C    0.982    25 C    0.965
    28   8 O    1.913 --    23 C    1.005    97 H    0.835
    29   6 C    3.924 --    22 C    0.981    99 H    0.963    98 H    0.960
                            30 O    0.955
    30   8 O    2.260 --    31 C    1.056    29 C    0.955    32 O    0.139
    31   6 C    3.890 --    32 O    1.698    30 O    1.056    64 C    1.037
    32   8 O    1.990 --    31 C    1.698    30 O    0.139
    33   6 C    3.895 --    35 O    1.613    17 O    1.096    34 C    1.080
    34   6 C    3.966 --    36 C    1.704    33 C    1.080   100 H    0.960
                            38 C    0.112
    35   8 O    1.980 --    33 C    1.613    17 O    0.143
    36   6 C    3.972 --    34 C    1.704    37 C    1.168   101 H    0.952
    37   6 C    3.985 --    38 C    1.766    36 C    1.168   102 H    0.958
    38   6 C    3.968 --    37 C    1.766    39 C    1.049   103 H    0.956
                            34 C    0.112
    39   6 C    3.985 --    38 C    1.049    40 C    0.968   104 H    0.961
                           105 H    0.932
    40   6 C    3.954 --    41 C    1.004    42 O    0.980    39 C    0.968
                           106 H    0.958
    41   6 C    3.977 --    43 C    1.840    40 C    1.004   107 H    0.965
                            45 C    0.122
    42   8 O    1.915 --    40 C    0.980   108 H    0.865
    43   6 C    3.991 --    41 C    1.840    44 C    1.116   109 H    0.960
    44   6 C    3.989 --    45 C    1.836    43 C    1.116   110 H    0.962
    45   6 C    3.982 --    44 C    1.836    46 C    1.031   111 H    0.965
                            41 C    0.122
    46   6 C    3.996 --    45 C    1.031    47 C    0.985   113 H    0.972
                           112 H    0.968
    47   6 C    3.988 --    48 C    1.008    46 C    0.985   115 H    0.975
                           114 H    0.968
    48   6 C    3.996 --    47 C    1.008    49 C    1.007   117 H    0.976
                           116 H    0.972
    49   6 C    3.997 --    50 C    1.020    48 C    1.007   118 H    0.977
                           119 H    0.973
    50   6 C    3.996 --    49 C    1.020   120 H    0.987   122 H    0.986
                           121 H    0.982
    51   8 O    2.086 --     1 C    1.078   123 H    0.834
    52   8 O    2.076 --     5 C    1.080   124 H    0.837
    53   6 C    3.921 --    27 O    0.982    54 C    0.956    58 O    0.953
                           125 H    0.945
    54   6 C    3.958 --    62 O    0.999    55 C    0.969    53 C    0.956
                           126 H    0.955
    55   6 C    3.966 --    61 O    1.003    54 C    0.969    56 C    0.968
                           127 H    0.960
    56   6 C    3.968 --    60 O    1.006    55 C    0.968    57 C    0.967
                           128 H    0.957
    57   6 C    3.936 --    59 C    0.982    56 C    0.967   129 H    0.949
                            58 O    0.948
    58   8 O    2.056 --    53 C    0.953    57 C    0.948
    59   6 C    3.948 --    63 O    1.005    57 C    0.982   131 H    0.960
                           130 H    0.955
    60   8 O    1.922 --    56 C    1.006   132 H    0.836
    61   8 O    1.925 --    55 C    1.003   133 H    0.839
    62   8 O    1.917 --    54 C    0.999   134 H    0.845
    63   8 O    1.945 --    59 C    1.005   135 H    0.859
    64   6 C    3.974 --    69 C    1.363    65 C    1.359    31 C    1.037
    65   6 C    3.985 --    66 C    1.477    64 C    1.359   136 H    0.964
    66   6 C    3.986 --    65 C    1.477    67 C    1.366   137 H    0.963
    67   6 C    3.984 --    68 C    1.367    66 C    1.366    70 C    1.062
    68   6 C    3.988 --    69 C    1.478    67 C    1.367   138 H    0.965
    69   6 C    3.986 --    68 C    1.478    64 C    1.363   139 H    0.957
    70   6 C    3.986 --    71 C    1.373    75 C    1.368    67 C    1.062
    71   6 C    3.987 --    72 C    1.473    70 C    1.373   140 H    0.965
    72   6 C    3.986 --    71 C    1.473    73 C    1.361   141 H    0.964
    73   6 C    3.930 --    72 C    1.361    74 C    1.357    76 O    1.073
    74   6 C    3.987 --    75 C    1.477    73 C    1.357   142 H    0.967
    75   6 C    3.988 --    74 C    1.477    70 C    1.368   143 H    0.966
    76   8 O    2.067 --    73 C    1.073   144 H    0.840
    77   1 H    0.995 --     4 C    0.964
    78   1 H    0.994 --     6 C    0.961
    79   1 H    0.998 --     7 C    0.950
    80   1 H    0.996 --     8 C    0.958
    81   1 H    0.996 --     9 C    0.939
    82   1 H    0.993 --    10 C    0.955
    83   1 H    0.996 --    11 C    0.945
    84   1 H    0.999 --    13 C    0.961
    85   1 H    0.997 --    13 C    0.967
    86   1 H    0.888 --    14 O    0.844
    87   1 H    0.885 --    15 O    0.830
    88   1 H    0.997 --    18 C    0.966
    89   1 H    0.995 --    18 C    0.967
    90   1 H    0.866 --    19 O    0.850
    91   1 H    1.000 --    20 C    0.939
    92   1 H    0.999 --    22 C    0.949
    93   1 H    0.997 --    23 C    0.953
    94   1 H    0.997 --    24 C    0.945
    95   1 H    0.992 --    25 C    0.952
    96   1 H    0.867 --    26 O    0.848
    97   1 H    0.857 --    28 O    0.835
    98   1 H    0.991 --    29 C    0.960
    99   1 H    0.991 --    29 C    0.963
   100   1 H    0.993 --    34 C    0.960
   101   1 H    0.995 --    36 C    0.952
   102   1 H    0.995 --    37 C    0.958
   103   1 H    0.995 --    38 C    0.956
   104   1 H    0.994 --    39 C    0.961
   105   1 H    0.980 --    39 C    0.932
   106   1 H    0.997 --    40 C    0.958
   107   1 H    0.998 --    41 C    0.965
   108   1 H    0.880 --    42 O    0.865
   109   1 H    0.998 --    43 C    0.960
   110   1 H    0.998 --    44 C    0.962
   111   1 H    0.999 --    45 C    0.965
   112   1 H    0.996 --    46 C    0.968
   113   1 H    0.998 --    46 C    0.972
   114   1 H    0.998 --    47 C    0.968
   115   1 H    0.998 --    47 C    0.975
   116   1 H    0.999 --    48 C    0.972
   117   1 H    0.999 --    48 C    0.976
   118   1 H    0.999 --    49 C    0.977
   119   1 H    0.999 --    49 C    0.973
   120   1 H    0.999 --    50 C    0.987
   121   1 H    0.998 --    50 C    0.982
   122   1 H    0.999 --    50 C    0.986
   123   1 H    0.875 --    51 O    0.834
   124   1 H    0.854 --    52 O    0.837
   125   1 H    1.000 --    53 C    0.945
   126   1 H    0.996 --    54 C    0.955
   127   1 H    0.999 --    55 C    0.960
   128   1 H    0.997 --    56 C    0.957
   129   1 H    1.000 --    57 C    0.949
   130   1 H    0.992 --    59 C    0.955
   131   1 H    0.997 --    59 C    0.960
   132   1 H    0.860 --    60 O    0.836
   133   1 H    0.856 --    61 O    0.839
   134   1 H    0.864 --    62 O    0.845
   135   1 H    0.909 --    63 O    0.859
   136   1 H    0.996 --    65 C    0.964
   137   1 H    0.996 --    66 C    0.963
   138   1 H    0.996 --    68 C    0.965
   139   1 H    0.996 --    69 C    0.957
   140   1 H    0.997 --    71 C    0.965
   141   1 H    0.996 --    72 C    0.964
   142   1 H    0.997 --    74 C    0.967
   143   1 H    0.998 --    75 C    0.966
   144   1 H    0.859 --    76 O    0.840
 ---------------------------------------------------------------------------

Topologies differ in total number of bonds
Writing topology from bond orders to xtbtopo.mol

molecular dipole:
                 x           y           z       tot (Debye)
 q only:        3.049       1.794       1.536
   full:        3.036       1.418       1.743       9.600
molecular quadrupole (traceless):
                xx          xy          yy          xz          yz          zz
 q only:       46.456      18.211      -6.106      10.380     -15.324     -40.350
  q+dip:       40.404      22.769     -12.708       5.127     -13.383     -27.696
   full:       41.169      22.138     -10.884       7.708     -18.347     -30.284


           -------------------------------------------------
          | TOTAL ENERGY             -239.824970522043 Eh   |
          | GRADIENT NORM               0.123041078657 Eh/α |
          | HOMO-LUMO GAP               1.817025345406 eV   |
           -------------------------------------------------

------------------------------------------------------------------------
 * finished run on 2026/06/19 at 18:53:12.432     
------------------------------------------------------------------------
 total:
 * wall-time:     0 d,  0 h,  0 min,  0.326 sec
 *  cpu-time:     0 d,  0 h,  0 min,  4.862 sec
 * ratio c/w:    14.893 speedup
 SCF:
 * wall-time:     0 d,  0 h,  0 min,  0.266 sec
 *  cpu-time:     0 d,  0 h,  0 min,  4.181 sec
 * ratio c/w:    15.715 speedup

normal termination of xtb
