      -----------------------------------------------------------      
     |                   =====================                   |     
     |                           x T B                           |     
     |                   =====================                   |     
     |                         S. Grimme                         |     
     |          Mulliken Center for Theoretical Chemistry        |     
     |                    University of Bonn                     |     
      -----------------------------------------------------------      

   * xtb version 6.7.1 (edcfbbe) compiled by 'albert@albert-system' on 2024-07-22

   xtb is free software: you can redistribute it and/or modify it under
   the terms of the GNU Lesser General Public License as published by
   the Free Software Foundation, either version 3 of the License, or
   (at your option) any later version.
   
   xtb is distributed in the hope that it will be useful,
   but WITHOUT ANY WARRANTY; without even the implied warranty of
   MERCHANTABILITY or FITNESS FOR A PARTICULAR PURPOSE.  See the
   GNU Lesser General Public License for more details.
   
   Cite this work as:
   * C. Bannwarth, E. Caldeweyher, S. Ehlert, A. Hansen, P. Pracht,
     J. Seibert, S. Spicher, S. Grimme, WIREs Comput. Mol. Sci., 2020, 11,
     e01493. DOI: 10.1002/wcms.1493
   
   for GFN2-xTB:
   * C. Bannwarth, S. Ehlert and S. Grimme., J. Chem. Theory Comput., 2019,
     15, 1652-1671. DOI: 10.1021/acs.jctc.8b01176
   for GFN1-xTB:
   * S. Grimme, C. Bannwarth, P. Shushkov, J. Chem. Theory Comput., 2017,
     13, 1989-2009. DOI: 10.1021/acs.jctc.7b00118
   for GFN0-xTB:
   * P. Pracht, E. Caldeweyher, S. Ehlert, S. Grimme, ChemRxiv, 2019, preprint.
     DOI: 10.26434/chemrxiv.8326202.v1
   for GFN-FF:
   * S. Spicher and S. Grimme, Angew. Chem. Int. Ed., 2020, 59, 15665-15673.
     DOI: 10.1002/anie.202004239
   
   for ALPB and GBSA implicit solvation:
   * S. Ehlert, M. Stahn, S. Spicher, S. Grimme, J. Chem. Theory Comput.,
     2021, 17, 4250-4261. DOI: 10.1021/acs.jctc.1c00471
   
   for ddCOSMO and CPCM-X implicit solvation:
   * M. Stahn, S. Ehlert, S. Grimme, J. Phys. Chem. A,
     2023, XX, XXXX-XXXX. DOI: 10.1021/acs.jpca.3c04382
   
   for DFT-D4:
   * E. Caldeweyher, C. Bannwarth and S. Grimme, J. Chem. Phys., 2017,
     147, 034112. DOI: 10.1063/1.4993215
   * E. Caldeweyher, S. Ehlert, A. Hansen, H. Neugebauer, S. Spicher,
     C. Bannwarth and S. Grimme, J. Chem. Phys., 2019, 150, 154122.
     DOI: 10.1063/1.5090222
   * E. Caldeweyher, J.-M. Mewes, S. Ehlert and S. Grimme, Phys. Chem. Chem. Phys.
     2020, 22, 8499-8512. DOI: 10.1039/D0CP00502A
   
   for sTDA-xTB:
   * S. Grimme and C. Bannwarth, J. Chem. Phys., 2016, 145, 054103.
     DOI: 10.1063/1.4959605
   
   in the mass-spec context:
   * V. Asgeirsson, C. Bauer and S. Grimme, Chem. Sci., 2017, 8, 4879.
     DOI: 10.1039/c7sc00601b
   * J. Koopman and S. Grimme, ACS Omega 2019, 4, 12, 15120-15133.
     DOI: 10.1021/acsomega.9b02011
   
   for metadynamics refer to:
   * S. Grimme, J. Chem. Theory Comput., 2019, 155, 2847-2862
     DOI: 10.1021/acs.jctc.9b00143
   
   for SPH calculations refer to:
   * S. Spicher and S. Grimme, J. Chem. Theory Comput., 2021, 17, 1701-1714
     DOI: 10.1021/acs.jctc.0c01306
   
   for ONIOM refer to:
   * C. Plett, A. Katbashev, S. Ehlert, S. Grimme, M. Bursch,
     Phys. Chem. Chem. Phys., 2023, 25, 17860-17868. DOI: 10.1039/D3CP02178E
   
   for DIPRO refer to:
   * J. Kohn, N. Gildemeister, S. Grimme, D. Fazzi, A. Hansen,
     J. Chem. Phys., 2023, just accepted.
   
   for PTB refer to:
   * S. Grimme, M. Mueller, A. Hansen, J. Chem. Phys., 2023, 158, 124111.
     DOI: 10.1063/5.0137838
   
   with help from (in alphabetical order)
   P. Atkinson, C. Bannwarth, F. Bohle, G. Brandenburg, E. Caldeweyher
   M. Checinski, S. Dohm, S. Ehlert, S. Ehrlich, I. Gerasimov, C. Hölzer
   A. Katbashev, J. Kohn, J. Koopman, C. Lavigne, S. Lehtola, F. März, M. Müller,
   F. Musil, H. Neugebauer, J. Pisarek, C. Plett, P. Pracht, F. Pultar,
   J. Seibert, P. Shushkov, S. Spicher, M. Stahn, M. Steiner, T. Strunk,
   J. Stückrath, T. Rose, and J. Unsleber
   
 * started run on 2026/06/19 at 18:53:12.445     
   ID    Z sym.   atoms
    1    6 C      1-11, 13, 18, 20, 22-25, 29, 31, 33, 34, 36-41, 43-50,
                  53-57, 59, 64-75
    2    8 O      12, 14-17, 19, 21, 26-28, 30, 32, 35, 42, 51, 52, 58,
                  60-63, 76
    3    1 H      77-144

           -------------------------------------------------
          |                Calculation Setup                |
           -------------------------------------------------

          program call               : xtb PAPU-0091/conf05.xyz --gfn 2 --alpb octanol --chrg 0 --uhf 0 --namespace PAPU-0091/conf05_octanol
          hostname                   : cpu10
          calculation namespace      : PAPU-0091/conf05_octanol
          coordinate file            : PAPU-0091/conf05.xyz
          omp threads                :                    16


           -------------------------------------------------
          |                 G F N 2 - x T B                 |
           -------------------------------------------------

        Reference                      10.1021/acs.jctc.8b01176
      * Hamiltonian:
        H0-scaling (s, p, d)           1.850000    2.230000    2.230000
        zeta-weighting                 0.500000
      * Dispersion:
        s8                             2.700000
        a1                             0.520000
        a2                             5.000000
        s9                             5.000000
      * Repulsion:
        kExp                           1.500000    1.000000
        rExp                           1.000000
      * Coulomb:
        alpha                          2.000000
        third order                    shell-resolved
        anisotropic                    true
        a3                             3.000000
        a5                             4.000000
        cn-shift                       1.200000
        cn-exp                         4.000000
        max-rad                        5.000000

      * Solvation model:               ALPB
        Solvent                        octanol
        Parameter file                 internal GFN2-xTB/ALPB
        Dielectric constant                9.8629E+00
        Reference state                gsolv [1 M gas/solution]
        Free energy shift                  2.3397E-03 Eh       1.4682E+00 kcal/mol
        Temperature                        2.9815E+02 K
        Density                            8.3000E-01 kg/L
        Solvent mass                       1.3023E+02 g/mol
        Interaction kernel             P16
        Born radius scaling (c1)           1.5898E+00
        Born radii integrator          GBOBC
        Born offset                        0.0000E+00 a0       0.0000E+00 AA
        H-bond correction              true
        Ion screening                  false
        Surface tension                    1.0000E-05 Eh       1.5569E+01 dyn/cm
        Grid points                               230 per atom

          ...................................................
          :                      SETUP                      :
          :.................................................:
          :  # basis functions                 372          :
          :  # atomic orbitals                 372          :
          :  # shells                          220          :
          :  # electrons                       416          :
          :  max. iterations                   250          :
          :  Hamiltonian                  GFN2-xTB          :
          :  restarted?                      false          :
          :  GBSA solvation                   true          :
          :  PC potential                    false          :
          :  electronic temp.          300.0000000     K    :
          :  accuracy                    1.0000000          :
          :  -> integral cutoff          0.2500000E+02      :
          :  -> integral neglect         0.1000000E-07      :
          :  -> SCF convergence          0.1000000E-05 Eh   :
          :  -> wf. convergence          0.1000000E-03 e    :
          :  Broyden damping             0.4000000          :
          :  net charge                          0          :
          :  unpaired electrons                  0          :
          ...................................................

 iter      E             dE          RMSdq      gap      omega  full diag
   1   -242.2168119 -0.242217E+03  0.447E+00    2.33       0.0  T
   2   -242.4398689 -0.223057E+00  0.248E+00    1.83       1.0  T
   3   -242.4201897  0.196792E-01  0.105E+00    1.95       1.0  T
   4   -242.4609211 -0.407315E-01  0.304E-01    1.77       1.0  T
   5   -242.4669949 -0.607381E-02  0.132E-01    1.75       1.0  T
   6   -242.4679434 -0.948507E-03  0.618E-02    1.75       1.0  T
   7   -242.4680633 -0.119853E-03  0.260E-02    1.75       1.0  T
   8   -242.4680859 -0.226246E-04  0.106E-02    1.75       1.0  T
   9   -242.4680903 -0.436608E-05  0.518E-03    1.75       1.6  T
  10   -242.4680916 -0.130269E-05  0.249E-03    1.75       3.3  T
  11   -242.4680918 -0.232157E-06  0.123E-03    1.75       6.8  T
  12   -242.4680919 -0.328533E-07  0.554E-04    1.75      15.1  T
  13   -242.4680919 -0.149376E-07  0.254E-04    1.75      32.8  T

   *** convergence criteria satisfied after 13 iterations ***

         #    Occupation            Energy/Eh            Energy/eV
      -------------------------------------------------------------
         1        2.0000           -0.7694126             -20.9368
       ...           ...                  ...                  ...
       202        2.0000           -0.4097610             -11.1502
       203        2.0000           -0.4080154             -11.1027
       204        2.0000           -0.4072974             -11.0831
       205        2.0000           -0.4045679             -11.0089
       206        2.0000           -0.3933030             -10.7023
       207        2.0000           -0.3813345             -10.3766
       208        2.0000           -0.3742027             -10.1826 (HOMO)
       209                         -0.3100385              -8.4366 (LUMO)
       210                         -0.2913003              -7.9267
       211                         -0.2428057              -6.6071
       212                         -0.2421449              -6.5891
       213                         -0.2342597              -6.3745
       ...                                ...                  ...
       372                          0.6868927              18.6913
      -------------------------------------------------------------
                  HL-Gap            0.0641643 Eh            1.7460 eV
             Fermi-level           -0.3421206 Eh           -9.3096 eV

 SCC (total)                   0 d,  0 h,  0 min,  0.261 sec
 SCC setup                      ...        0 min,  0.003 sec (  1.314%)
 Dispersion                     ...        0 min,  0.004 sec (  1.719%)
 classical contributions        ...        0 min,  0.000 sec (  0.069%)
 integral evaluation            ...        0 min,  0.012 sec (  4.543%)
 iterations                     ...        0 min,  0.199 sec ( 76.330%)
 molecular gradient             ...        0 min,  0.039 sec ( 15.116%)
 printout                       ...        0 min,  0.002 sec (  0.895%)

         :::::::::::::::::::::::::::::::::::::::::::::::::::::
         ::                     SUMMARY                     ::
         :::::::::::::::::::::::::::::::::::::::::::::::::::::
         :: total energy            -239.845705087225 Eh    ::
         :: total w/o Gsasa/hb      -239.765789304685 Eh    ::
         :: gradient norm              0.122779737656 Eh/a0 ::
         :: HOMO-LUMO gap              1.745998826972 eV    ::
         ::.................................................::
         :: SCC energy              -242.453450270070 Eh    ::
         :: -> isotropic ES            0.557921448476 Eh    ::
         :: -> anisotropic ES         -0.033349023128 Eh    ::
         :: -> anisotropic XC          0.018766963447 Eh    ::
         :: -> dispersion             -0.197079890272 Eh    ::
         :: -> Gsolv                  -0.113345680470 Eh    ::
         ::    -> Gelec               -0.033429897930 Eh    ::
         ::    -> Gsasa               -0.030501755140 Eh    ::
         ::    -> Ghb                 -0.051753696776 Eh    ::
         ::    -> Gshift               0.002339669376 Eh    ::
         :: repulsion energy           2.607745182845 Eh    ::
         :: add. restraining           0.000000000000 Eh    ::
         :: total charge               0.000000000000 e     ::
         :::::::::::::::::::::::::::::::::::::::::::::::::::::

           -------------------------------------------------
          |                Property Printout                |
           -------------------------------------------------

    * Orbital Energies and Occupations

         #    Occupation            Energy/Eh            Energy/eV
      -------------------------------------------------------------
         1        2.0000           -0.7694126             -20.9368
       ...           ...                  ...                  ...
       196        2.0000           -0.4207856             -11.4502
       197        2.0000           -0.4179132             -11.3720
       198        2.0000           -0.4173971             -11.3580
       199        2.0000           -0.4158095             -11.3148
       200        2.0000           -0.4149504             -11.2914
       201        2.0000           -0.4112970             -11.1920
       202        2.0000           -0.4097610             -11.1502
       203        2.0000           -0.4080154             -11.1027
       204        2.0000           -0.4072974             -11.0831
       205        2.0000           -0.4045679             -11.0089
       206        2.0000           -0.3933030             -10.7023
       207        2.0000           -0.3813345             -10.3766
       208        2.0000           -0.3742027             -10.1826 (HOMO)
       209                         -0.3100385              -8.4366 (LUMO)
       210                         -0.2913003              -7.9267
       211                         -0.2428057              -6.6071
       212                         -0.2421449              -6.5891
       213                         -0.2342597              -6.3745
       214                         -0.2335854              -6.3562
       215                         -0.2331211              -6.3435
       216                         -0.2278558              -6.2003
       217                         -0.2247698              -6.1163
       218                         -0.1875477              -5.1034
       219                         -0.1583037              -4.3077
       ...                                ...                  ...
       372                          0.6868927              18.6913
      -------------------------------------------------------------
                  HL-Gap            0.0641643 Eh            1.7460 eV
             Fermi-level           -0.3421206 Eh           -9.3096 eV

     #   Z          covCN         q      C6AA      α(0)
     1   6 C        2.841     0.146    24.815     8.164
     2   6 C        2.972    -0.052    29.285     8.877
     3   6 C        2.964     0.002    27.991     8.678
     4   6 C        2.928    -0.077    29.933     8.972
     5   6 C        2.837     0.153    24.669     8.139
     6   6 C        2.920    -0.103    30.587     9.069
     7   6 C        3.750     0.097    19.043     6.224
     8   6 C        3.722     0.094    19.131     6.247
     9   6 C        3.776     0.094    19.058     6.220
    10   6 C        3.742     0.090    19.154     6.244
    11   6 C        3.743     0.080    19.316     6.270
    12   8 O        1.694    -0.357    20.020     6.041
    13   6 C        3.680     0.076    19.514     6.327
    14   8 O        1.652    -0.493    22.747     6.438
    15   8 O        1.651    -0.484    22.543     6.409
    16   8 O        1.698    -0.336    19.637     5.983
    17   8 O        1.703    -0.285    18.737     5.844
    18   6 C        3.675     0.070    19.633     6.349
    19   8 O        1.654    -0.475    22.355     6.383
    20   6 C        3.640     0.248    17.086     5.944
    21   8 O        1.695    -0.358    20.037     6.043
    22   6 C        3.747     0.111    18.822     6.188
    23   6 C        3.723     0.090    19.186     6.255
    24   6 C        3.724     0.084    19.279     6.270
    25   6 C        3.752     0.085    19.221     6.252
    26   8 O        1.654    -0.478    22.430     6.393
    27   8 O        1.699    -0.325    19.432     5.952
    28   8 O        1.653    -0.485    22.567     6.413
    29   6 C        3.742     0.069    19.494     6.299
    30   8 O        1.703    -0.296    18.929     5.874
    31   6 C        2.764     0.350    21.066     7.517
    32   8 O        0.857    -0.442    22.540     6.365
    33   6 C        2.750     0.361    20.873     7.481
    34   6 C        2.896    -0.099    30.490     9.053
    35   8 O        0.858    -0.490    23.573     6.510
    36   6 C        2.907     0.001    28.013     8.679
    37   6 C        2.898    -0.054    29.339     8.881
    38   6 C        2.898    -0.005    28.141     8.698
    39   6 C        3.807    -0.075    21.934     6.667
    40   6 C        3.728     0.118    18.745     6.181
    41   6 C        2.895    -0.073    29.818     8.953
    42   8 O        1.652    -0.495    22.784     6.444
    43   6 C        2.898    -0.039    28.965     8.824
    44   6 C        2.898    -0.054    29.338     8.881
    45   6 C        2.895    -0.036    28.906     8.815
    46   6 C        3.805    -0.063    21.714     6.634
    47   6 C        3.801    -0.063    21.719     6.635
    48   6 C        3.801    -0.063    21.711     6.634
    49   6 C        3.799    -0.053    21.533     6.607
    50   6 C        3.751    -0.112    22.709     6.796
    51   8 O        1.656    -0.431    21.459     6.253
    52   8 O        1.657    -0.430    21.435     6.250
    53   6 C        3.648     0.236    17.218     5.962
    54   6 C        3.723     0.084    19.281     6.271
    55   6 C        3.723     0.095    19.105     6.242
    56   6 C        3.722     0.087    19.247     6.265
    57   6 C        3.742     0.105    18.918     6.205
    58   8 O        1.695    -0.354    19.967     6.033
    59   6 C        3.676     0.071    19.609     6.345
    60   8 O        1.653    -0.476    22.378     6.386
    61   8 O        1.654    -0.477    22.403     6.390
    62   8 O        1.653    -0.483    22.524     6.407
    63   8 O        1.652    -0.460    22.043     6.338
    64   6 C        2.973    -0.024    28.600     8.772
    65   6 C        2.926    -0.018    28.465     8.749
    66   6 C        2.925    -0.037    28.912     8.818
    67   6 C        2.976     0.025    27.451     8.594
    68   6 C        2.925    -0.038    28.935     8.821
    69   6 C        2.924    -0.027    28.686     8.783
    70   6 C        2.975    -0.003    28.091     8.694
    71   6 C        2.923    -0.031    28.777     8.797
    72   6 C        2.918    -0.067    29.665     8.931
    73   6 C        2.842     0.147    24.793     8.160
    74   6 C        2.919    -0.060    29.492     8.906
    75   6 C        2.923    -0.036    28.899     8.816
    76   8 O        1.657    -0.444    21.729     6.293
    77   1 H        0.926     0.079     1.991     2.207
    78   1 H        0.926     0.078     1.998     2.210
    79   1 H        0.924     0.033     2.546     2.495
    80   1 H        0.923     0.058     2.218     2.329
    81   1 H        0.924     0.069     2.102     2.267
    82   1 H        0.923     0.074     2.041     2.234
    83   1 H        0.924     0.063     2.167     2.302
    84   1 H        0.924     0.031     2.579     2.511
    85   1 H        0.924     0.055     2.254     2.348
    86   1 H        0.802     0.330     0.638     1.255
    87   1 H        0.802     0.340     0.613     1.230
    88   1 H        0.924     0.047     2.355     2.400
    89   1 H        0.924     0.068     2.106     2.269
    90   1 H        0.804     0.352     0.584     1.201
    91   1 H        0.923     0.017     2.778     2.606
    92   1 H        0.923     0.040     2.453     2.449
    93   1 H        0.923     0.058     2.227     2.334
    94   1 H        0.923     0.063     2.165     2.301
    95   1 H        0.923     0.083     1.946     2.181
    96   1 H        0.804     0.358     0.569     1.185
    97   1 H        0.803     0.367     0.550     1.165
    98   1 H        0.924     0.090     1.881     2.145
    99   1 H        0.924     0.088     1.898     2.155
   100   1 H        0.926     0.083     1.952     2.185
   101   1 H        0.926     0.068     2.106     2.269
   102   1 H        0.926     0.072     2.065     2.247
   103   1 H        0.926     0.076     2.022     2.224
   104   1 H        0.924     0.073     2.055     2.242
   105   1 H        0.924     0.093     1.851     2.128
   106   1 H        0.923     0.027     2.631     2.537
   107   1 H        0.926     0.043     2.405     2.425
   108   1 H        0.804     0.336     0.622     1.239
   109   1 H        0.926     0.047     2.361     2.403
   110   1 H        0.926     0.041     2.437     2.441
   111   1 H        0.926     0.041     2.441     2.443
   112   1 H        0.924     0.043     2.410     2.428
   113   1 H        0.924     0.041     2.433     2.439
   114   1 H        0.924     0.044     2.400     2.423
   115   1 H        0.924     0.034     2.525     2.485
   116   1 H        0.924     0.035     2.522     2.483
   117   1 H        0.924     0.034     2.533     2.489
   118   1 H        0.924     0.030     2.585     2.514
   119   1 H        0.924     0.024     2.669     2.555
   120   1 H        0.924     0.040     2.452     2.449
   121   1 H        0.924     0.035     2.522     2.483
   122   1 H        0.924     0.034     2.536     2.490
   123   1 H        0.803     0.347     0.596     1.213
   124   1 H        0.804     0.363     0.559     1.175
   125   1 H        0.923     0.005     2.965     2.693
   126   1 H        0.923     0.061     2.185     2.312
   127   1 H        0.923     0.031     2.577     2.510
   128   1 H        0.923     0.050     2.324     2.384
   129   1 H        0.923     0.002     3.015     2.716
   130   1 H        0.924     0.096     1.826     2.113
   131   1 H        0.924     0.047     2.363     2.404
   132   1 H        0.803     0.367     0.549     1.164
   133   1 H        0.804     0.367     0.549     1.164
   134   1 H        0.804     0.357     0.572     1.188
   135   1 H        0.801     0.303     0.712     1.325
   136   1 H        0.926     0.072     2.066     2.248
   137   1 H        0.926     0.066     2.132     2.283
   138   1 H        0.926     0.058     2.217     2.328
   139   1 H        0.926     0.057     2.237     2.339
   140   1 H        0.926     0.057     2.240     2.340
   141   1 H        0.926     0.054     2.268     2.355
   142   1 H        0.926     0.056     2.247     2.344
   143   1 H        0.926     0.043     2.412     2.429
   144   1 H        0.804     0.355     0.576     1.192

 Mol. C6AA /au·bohr⁶  :     208886.295278
 Mol. C8AA /au·bohr⁸  :    4802265.286483
 Mol. α(0) /au        :        690.516247


Wiberg/Mayer (AO) data.
largest (>0.10) Wiberg bond orders for each atom

 ---------------------------------------------------------------------------
     #   Z sym  total        # sym  WBO       # sym  WBO       # sym  WBO
 ---------------------------------------------------------------------------
     1   6 C    3.944 --     6 C    1.388     2 C    1.333    51 O    1.078
     2   6 C    3.970 --     3 C    1.385     1 C    1.333     7 C    0.994
     3   6 C    3.986 --     4 C    1.431     2 C    1.385    13 C    1.003
     4   6 C    3.982 --     3 C    1.431     5 C    1.357    77 H    0.962
     5   6 C    3.945 --     6 C    1.380     4 C    1.357    52 O    1.082
     6   6 C    3.977 --     1 C    1.388     5 C    1.380    78 H    0.961
     7   6 C    3.938 --     2 C    0.994    79 H    0.950     8 C    0.948
                            12 O    0.946
     8   6 C    3.958 --    15 O    1.009    80 H    0.959     9 C    0.956
                             7 C    0.948
     9   6 C    3.924 --    10 C    0.966     8 C    0.956    17 O    0.945
                            81 H    0.938
    10   6 C    3.932 --     9 C    0.966    16 O    0.961    11 C    0.958
                            82 H    0.955
    11   6 C    3.939 --    18 C    0.982    12 O    0.960    10 C    0.958
                            83 H    0.944
    12   8 O    2.064 --    11 C    0.960     7 C    0.946
    13   6 C    3.949 --     3 C    1.003    14 O    0.971    85 H    0.967
                            84 H    0.961
    14   8 O    1.952 --    13 C    0.971    86 H    0.846
    15   8 O    1.938 --     8 C    1.009    87 H    0.829
    16   8 O    2.080 --    20 C    0.977    10 C    0.961
    17   8 O    2.274 --    33 C    1.094     9 C    0.945    35 O    0.143
    18   6 C    3.959 --    19 O    1.012    11 C    0.982    89 H    0.966
                            88 H    0.966
    19   8 O    1.931 --    18 C    1.012    90 H    0.860
    20   6 C    3.923 --    16 O    0.977    21 O    0.956    25 C    0.956
                            91 H    0.939
    21   8 O    2.063 --    20 C    0.956    22 C    0.947
    22   6 C    3.936 --    29 C    0.981    23 C    0.970    92 H    0.949
                            21 O    0.947
    23   6 C    3.965 --    28 O    1.005    22 C    0.970    24 C    0.967
                            93 H    0.952
    24   6 C    3.959 --    26 O    0.999    23 C    0.967    25 C    0.965
                            94 H    0.944
    25   6 C    3.938 --    24 C    0.965    27 O    0.964    20 C    0.956
                            95 H    0.953
    26   8 O    1.935 --    24 C    0.999    96 H    0.852
    27   8 O    2.091 --    53 C    0.981    25 C    0.964
    28   8 O    1.921 --    23 C    1.005    97 H    0.843
    29   6 C    3.927 --    22 C    0.981    99 H    0.964    98 H    0.959
                            30 O    0.957
    30   8 O    2.252 --    31 C    1.046    29 C    0.957    32 O    0.138
    31   6 C    3.890 --    32 O    1.712    30 O    1.046    64 C    1.035
    32   8 O    2.005 --    31 C    1.712    30 O    0.138
    33   6 C    3.896 --    35 O    1.621    17 O    1.094    34 C    1.078
    34   6 C    3.966 --    36 C    1.706    33 C    1.078   100 H    0.959
                            38 C    0.113
    35   8 O    1.988 --    33 C    1.621    17 O    0.143
    36   6 C    3.972 --    34 C    1.706    37 C    1.167   101 H    0.951
    37   6 C    3.984 --    38 C    1.766    36 C    1.167   102 H    0.958
    38   6 C    3.968 --    37 C    1.766    39 C    1.050   103 H    0.956
                            34 C    0.113
    39   6 C    3.985 --    38 C    1.050    40 C    0.968   104 H    0.961
                           105 H    0.931
    40   6 C    3.954 --    41 C    1.003    42 O    0.980    39 C    0.968
                           106 H    0.958
    41   6 C    3.977 --    43 C    1.840    40 C    1.003   107 H    0.965
                            45 C    0.122
    42   8 O    1.922 --    40 C    0.980   108 H    0.872
    43   6 C    3.990 --    41 C    1.840    44 C    1.117   109 H    0.960
    44   6 C    3.989 --    45 C    1.835    43 C    1.117   110 H    0.962
    45   6 C    3.982 --    44 C    1.835    46 C    1.032   111 H    0.965
                            41 C    0.122
    46   6 C    3.996 --    45 C    1.032    47 C    0.984   113 H    0.972
                           112 H    0.967
    47   6 C    3.987 --    48 C    1.008    46 C    0.984   115 H    0.975
                           114 H    0.968
    48   6 C    3.996 --    47 C    1.008    49 C    1.007   117 H    0.976
                           116 H    0.972
    49   6 C    3.997 --    50 C    1.020    48 C    1.007   118 H    0.977
                           119 H    0.973
    50   6 C    3.995 --    49 C    1.020   120 H    0.986   122 H    0.986
                           121 H    0.982
    51   8 O    2.090 --     1 C    1.078   123 H    0.838
    52   8 O    2.091 --     5 C    1.082   124 H    0.850
    53   6 C    3.923 --    27 O    0.981    54 C    0.956    58 O    0.955
                           125 H    0.944
    54   6 C    3.958 --    62 O    0.999    55 C    0.970    53 C    0.956
                           126 H    0.955
    55   6 C    3.966 --    61 O    1.003    54 C    0.970    56 C    0.967
                           127 H    0.960
    56   6 C    3.968 --    60 O    1.008    55 C    0.967    57 C    0.967
                           128 H    0.957
    57   6 C    3.937 --    59 C    0.981    56 C    0.967    58 O    0.950
                           129 H    0.949
    58   8 O    2.062 --    53 C    0.955    57 C    0.950
    59   6 C    3.949 --    63 O    1.008    57 C    0.981   131 H    0.960
                           130 H    0.953
    60   8 O    1.928 --    56 C    1.008   132 H    0.841
    61   8 O    1.934 --    55 C    1.003   133 H    0.848
    62   8 O    1.925 --    54 C    0.999   134 H    0.853
    63   8 O    1.948 --    59 C    1.008   135 H    0.858
    64   6 C    3.974 --    69 C    1.364    65 C    1.360    31 C    1.035
    65   6 C    3.983 --    66 C    1.476    64 C    1.360   136 H    0.962
    66   6 C    3.986 --    65 C    1.476    67 C    1.367   137 H    0.962
    67   6 C    3.984 --    66 C    1.367    68 C    1.367    70 C    1.062
    68   6 C    3.987 --    69 C    1.478    67 C    1.367   138 H    0.965
    69   6 C    3.987 --    68 C    1.478    64 C    1.364   139 H    0.957
    70   6 C    3.986 --    71 C    1.373    75 C    1.368    67 C    1.062
    71   6 C    3.986 --    72 C    1.472    70 C    1.373   140 H    0.965
    72   6 C    3.987 --    71 C    1.472    73 C    1.362   141 H    0.965
    73   6 C    3.929 --    72 C    1.362    74 C    1.357    76 O    1.071
    74   6 C    3.987 --    75 C    1.477    73 C    1.357   142 H    0.967
    75   6 C    3.987 --    74 C    1.477    70 C    1.368   143 H    0.966
    76   8 O    2.077 --    73 C    1.071   144 H    0.854
    77   1 H    0.993 --     4 C    0.962
    78   1 H    0.993 --     6 C    0.961
    79   1 H    0.999 --     7 C    0.950
    80   1 H    0.996 --     8 C    0.959
    81   1 H    0.995 --     9 C    0.938
    82   1 H    0.994 --    10 C    0.955
    83   1 H    0.996 --    11 C    0.944
    84   1 H    0.999 --    13 C    0.961
    85   1 H    0.997 --    13 C    0.967
    86   1 H    0.891 --    14 O    0.846
    87   1 H    0.885 --    15 O    0.829
    88   1 H    0.998 --    18 C    0.966
    89   1 H    0.995 --    18 C    0.966
    90   1 H    0.876 --    19 O    0.860
    91   1 H    1.000 --    20 C    0.939
    92   1 H    0.998 --    22 C    0.949
    93   1 H    0.996 --    23 C    0.952
    94   1 H    0.996 --    24 C    0.944
    95   1 H    0.992 --    25 C    0.953
    96   1 H    0.871 --    26 O    0.852
    97   1 H    0.865 --    28 O    0.843
    98   1 H    0.991 --    29 C    0.959
    99   1 H    0.992 --    29 C    0.964
   100   1 H    0.993 --    34 C    0.959
   101   1 H    0.995 --    36 C    0.951
   102   1 H    0.995 --    37 C    0.958
   103   1 H    0.994 --    38 C    0.956
   104   1 H    0.994 --    39 C    0.961
   105   1 H    0.980 --    39 C    0.931
   106   1 H    0.997 --    40 C    0.958
   107   1 H    0.998 --    41 C    0.965
   108   1 H    0.887 --    42 O    0.872
   109   1 H    0.998 --    43 C    0.960
   110   1 H    0.998 --    44 C    0.962
   111   1 H    0.998 --    45 C    0.965
   112   1 H    0.996 --    46 C    0.967
   113   1 H    0.998 --    46 C    0.972
   114   1 H    0.998 --    47 C    0.968
   115   1 H    0.998 --    47 C    0.975
   116   1 H    0.999 --    48 C    0.972
   117   1 H    0.999 --    48 C    0.976
   118   1 H    0.999 --    49 C    0.977
   119   1 H    0.999 --    49 C    0.973
   120   1 H    0.998 --    50 C    0.986
   121   1 H    0.998 --    50 C    0.982
   122   1 H    0.999 --    50 C    0.986
   123   1 H    0.879 --    51 O    0.838
   124   1 H    0.868 --    52 O    0.850
   125   1 H    1.000 --    53 C    0.944
   126   1 H    0.996 --    54 C    0.955
   127   1 H    0.999 --    55 C    0.960
   128   1 H    0.997 --    56 C    0.957
   129   1 H    1.000 --    57 C    0.949
   130   1 H    0.991 --    59 C    0.953
   131   1 H    0.997 --    59 C    0.960
   132   1 H    0.865 --    60 O    0.841
   133   1 H    0.865 --    61 O    0.848
   134   1 H    0.872 --    62 O    0.853
   135   1 H    0.908 --    63 O    0.858
   136   1 H    0.994 --    65 C    0.962
   137   1 H    0.995 --    66 C    0.962
   138   1 H    0.996 --    68 C    0.965
   139   1 H    0.996 --    69 C    0.957
   140   1 H    0.997 --    71 C    0.965
   141   1 H    0.997 --    72 C    0.965
   142   1 H    0.996 --    74 C    0.967
   143   1 H    0.998 --    75 C    0.966
   144   1 H    0.873 --    76 O    0.854
 ---------------------------------------------------------------------------

Topologies differ in total number of bonds
Writing topology from bond orders to xtbtopo.mol

molecular dipole:
                 x           y           z       tot (Debye)
 q only:        3.123       1.776       1.210
   full:        3.072       1.393       1.529       9.413
molecular quadrupole (traceless):
                xx          xy          yy          xz          yz          zz
 q only:       44.441      13.543      -6.642       9.618     -14.037     -37.799
  q+dip:       39.085      19.313     -13.125       4.501     -12.520     -25.959
   full:       39.867      18.703     -11.309       7.088     -17.492     -28.558


           -------------------------------------------------
          | TOTAL ENERGY             -239.845705087225 Eh   |
          | GRADIENT NORM               0.122779737656 Eh/α |
          | HOMO-LUMO GAP               1.745998826972 eV   |
           -------------------------------------------------

------------------------------------------------------------------------
 * finished run on 2026/06/19 at 18:53:12.763     
------------------------------------------------------------------------
 total:
 * wall-time:     0 d,  0 h,  0 min,  0.318 sec
 *  cpu-time:     0 d,  0 h,  0 min,  4.834 sec
 * ratio c/w:    15.208 speedup
 SCF:
 * wall-time:     0 d,  0 h,  0 min,  0.262 sec
 *  cpu-time:     0 d,  0 h,  0 min,  4.111 sec
 * ratio c/w:    15.692 speedup

normal termination of xtb
