      -----------------------------------------------------------      
     |                   =====================                   |     
     |                           x T B                           |     
     |                   =====================                   |     
     |                         S. Grimme                         |     
     |          Mulliken Center for Theoretical Chemistry        |     
     |                    University of Bonn                     |     
      -----------------------------------------------------------      

   * xtb version 6.7.1 (edcfbbe) compiled by 'albert@albert-system' on 2024-07-22

   xtb is free software: you can redistribute it and/or modify it under
   the terms of the GNU Lesser General Public License as published by
   the Free Software Foundation, either version 3 of the License, or
   (at your option) any later version.
   
   xtb is distributed in the hope that it will be useful,
   but WITHOUT ANY WARRANTY; without even the implied warranty of
   MERCHANTABILITY or FITNESS FOR A PARTICULAR PURPOSE.  See the
   GNU Lesser General Public License for more details.
   
   Cite this work as:
   * C. Bannwarth, E. Caldeweyher, S. Ehlert, A. Hansen, P. Pracht,
     J. Seibert, S. Spicher, S. Grimme, WIREs Comput. Mol. Sci., 2020, 11,
     e01493. DOI: 10.1002/wcms.1493
   
   for GFN2-xTB:
   * C. Bannwarth, S. Ehlert and S. Grimme., J. Chem. Theory Comput., 2019,
     15, 1652-1671. DOI: 10.1021/acs.jctc.8b01176
   for GFN1-xTB:
   * S. Grimme, C. Bannwarth, P. Shushkov, J. Chem. Theory Comput., 2017,
     13, 1989-2009. DOI: 10.1021/acs.jctc.7b00118
   for GFN0-xTB:
   * P. Pracht, E. Caldeweyher, S. Ehlert, S. Grimme, ChemRxiv, 2019, preprint.
     DOI: 10.26434/chemrxiv.8326202.v1
   for GFN-FF:
   * S. Spicher and S. Grimme, Angew. Chem. Int. Ed., 2020, 59, 15665-15673.
     DOI: 10.1002/anie.202004239
   
   for ALPB and GBSA implicit solvation:
   * S. Ehlert, M. Stahn, S. Spicher, S. Grimme, J. Chem. Theory Comput.,
     2021, 17, 4250-4261. DOI: 10.1021/acs.jctc.1c00471
   
   for ddCOSMO and CPCM-X implicit solvation:
   * M. Stahn, S. Ehlert, S. Grimme, J. Phys. Chem. A,
     2023, XX, XXXX-XXXX. DOI: 10.1021/acs.jpca.3c04382
   
   for DFT-D4:
   * E. Caldeweyher, C. Bannwarth and S. Grimme, J. Chem. Phys., 2017,
     147, 034112. DOI: 10.1063/1.4993215
   * E. Caldeweyher, S. Ehlert, A. Hansen, H. Neugebauer, S. Spicher,
     C. Bannwarth and S. Grimme, J. Chem. Phys., 2019, 150, 154122.
     DOI: 10.1063/1.5090222
   * E. Caldeweyher, J.-M. Mewes, S. Ehlert and S. Grimme, Phys. Chem. Chem. Phys.
     2020, 22, 8499-8512. DOI: 10.1039/D0CP00502A
   
   for sTDA-xTB:
   * S. Grimme and C. Bannwarth, J. Chem. Phys., 2016, 145, 054103.
     DOI: 10.1063/1.4959605
   
   in the mass-spec context:
   * V. Asgeirsson, C. Bauer and S. Grimme, Chem. Sci., 2017, 8, 4879.
     DOI: 10.1039/c7sc00601b
   * J. Koopman and S. Grimme, ACS Omega 2019, 4, 12, 15120-15133.
     DOI: 10.1021/acsomega.9b02011
   
   for metadynamics refer to:
   * S. Grimme, J. Chem. Theory Comput., 2019, 155, 2847-2862
     DOI: 10.1021/acs.jctc.9b00143
   
   for SPH calculations refer to:
   * S. Spicher and S. Grimme, J. Chem. Theory Comput., 2021, 17, 1701-1714
     DOI: 10.1021/acs.jctc.0c01306
   
   for ONIOM refer to:
   * C. Plett, A. Katbashev, S. Ehlert, S. Grimme, M. Bursch,
     Phys. Chem. Chem. Phys., 2023, 25, 17860-17868. DOI: 10.1039/D3CP02178E
   
   for DIPRO refer to:
   * J. Kohn, N. Gildemeister, S. Grimme, D. Fazzi, A. Hansen,
     J. Chem. Phys., 2023, just accepted.
   
   for PTB refer to:
   * S. Grimme, M. Mueller, A. Hansen, J. Chem. Phys., 2023, 158, 124111.
     DOI: 10.1063/5.0137838
   
   with help from (in alphabetical order)
   P. Atkinson, C. Bannwarth, F. Bohle, G. Brandenburg, E. Caldeweyher
   M. Checinski, S. Dohm, S. Ehlert, S. Ehrlich, I. Gerasimov, C. Hölzer
   A. Katbashev, J. Kohn, J. Koopman, C. Lavigne, S. Lehtola, F. März, M. Müller,
   F. Musil, H. Neugebauer, J. Pisarek, C. Plett, P. Pracht, F. Pultar,
   J. Seibert, P. Shushkov, S. Spicher, M. Stahn, M. Steiner, T. Strunk,
   J. Stückrath, T. Rose, and J. Unsleber
   
 * started run on 2026/06/19 at 18:53:11.781     
   ID    Z sym.   atoms
    1    6 C      1-11, 13, 18, 20, 22-25, 29, 31, 33, 34, 36-41, 43-50,
                  53-57, 59, 64-75
    2    8 O      12, 14-17, 19, 21, 26-28, 30, 32, 35, 42, 51, 52, 58,
                  60-63, 76
    3    1 H      77-144

           -------------------------------------------------
          |                Calculation Setup                |
           -------------------------------------------------

          program call               : xtb PAPU-0091/conf04.xyz --gfn 2 --alpb octanol --chrg 0 --uhf 0 --namespace PAPU-0091/conf04_octanol
          hostname                   : cpu10
          calculation namespace      : PAPU-0091/conf04_octanol
          coordinate file            : PAPU-0091/conf04.xyz
          omp threads                :                    16


           -------------------------------------------------
          |                 G F N 2 - x T B                 |
           -------------------------------------------------

        Reference                      10.1021/acs.jctc.8b01176
      * Hamiltonian:
        H0-scaling (s, p, d)           1.850000    2.230000    2.230000
        zeta-weighting                 0.500000
      * Dispersion:
        s8                             2.700000
        a1                             0.520000
        a2                             5.000000
        s9                             5.000000
      * Repulsion:
        kExp                           1.500000    1.000000
        rExp                           1.000000
      * Coulomb:
        alpha                          2.000000
        third order                    shell-resolved
        anisotropic                    true
        a3                             3.000000
        a5                             4.000000
        cn-shift                       1.200000
        cn-exp                         4.000000
        max-rad                        5.000000

      * Solvation model:               ALPB
        Solvent                        octanol
        Parameter file                 internal GFN2-xTB/ALPB
        Dielectric constant                9.8629E+00
        Reference state                gsolv [1 M gas/solution]
        Free energy shift                  2.3397E-03 Eh       1.4682E+00 kcal/mol
        Temperature                        2.9815E+02 K
        Density                            8.3000E-01 kg/L
        Solvent mass                       1.3023E+02 g/mol
        Interaction kernel             P16
        Born radius scaling (c1)           1.5898E+00
        Born radii integrator          GBOBC
        Born offset                        0.0000E+00 a0       0.0000E+00 AA
        H-bond correction              true
        Ion screening                  false
        Surface tension                    1.0000E-05 Eh       1.5569E+01 dyn/cm
        Grid points                               230 per atom

          ...................................................
          :                      SETUP                      :
          :.................................................:
          :  # basis functions                 372          :
          :  # atomic orbitals                 372          :
          :  # shells                          220          :
          :  # electrons                       416          :
          :  max. iterations                   250          :
          :  Hamiltonian                  GFN2-xTB          :
          :  restarted?                      false          :
          :  GBSA solvation                   true          :
          :  PC potential                    false          :
          :  electronic temp.          300.0000000     K    :
          :  accuracy                    1.0000000          :
          :  -> integral cutoff          0.2500000E+02      :
          :  -> integral neglect         0.1000000E-07      :
          :  -> SCF convergence          0.1000000E-05 Eh   :
          :  -> wf. convergence          0.1000000E-03 e    :
          :  Broyden damping             0.4000000          :
          :  net charge                          0          :
          :  unpaired electrons                  0          :
          ...................................................

 iter      E             dE          RMSdq      gap      omega  full diag
   1   -242.1976786 -0.242198E+03  0.447E+00    2.37       0.0  T
   2   -242.4295310 -0.231852E+00  0.247E+00    1.52       1.0  T
   3   -242.4165070  0.130240E-01  0.102E+00    1.48       1.0  T
   4   -242.4532433 -0.367362E-01  0.268E-01    1.24       1.0  T
   5   -242.4569041 -0.366082E-02  0.120E-01    1.22       1.0  T
   6   -242.4575732 -0.669108E-03  0.597E-02    1.25       1.0  T
   7   -242.4577178 -0.144565E-03  0.258E-02    1.25       1.0  T
   8   -242.4577410 -0.232303E-04  0.102E-02    1.25       1.0  T
   9   -242.4577449 -0.389249E-05  0.428E-03    1.25       1.9  T
  10   -242.4577453 -0.431493E-06  0.244E-03    1.25       3.4  T
  11   -242.4577456 -0.259938E-06  0.135E-03    1.25       6.2  T
  12   -242.4577456 -0.568966E-07  0.567E-04    1.25      14.7  T
  13   -242.4577457 -0.168878E-07  0.261E-04    1.25      32.0  T

   *** convergence criteria satisfied after 13 iterations ***

         #    Occupation            Energy/Eh            Energy/eV
      -------------------------------------------------------------
         1        2.0000           -0.7909556             -21.5230
       ...           ...                  ...                  ...
       202        2.0000           -0.4110169             -11.1843
       203        2.0000           -0.4098967             -11.1539
       204        2.0000           -0.4086143             -11.1190
       205        2.0000           -0.4032073             -10.9718
       206        2.0000           -0.3943337             -10.7304
       207        2.0000           -0.3829325             -10.4201
       208        2.0000           -0.3700905             -10.0707 (HOMO)
       209                         -0.3242947              -8.8245 (LUMO)
       210                         -0.2842962              -7.7361
       211                         -0.2429101              -6.6099
       212                         -0.2407876              -6.5522
       213                         -0.2403129              -6.5392
       ...                                ...                  ...
       372                          0.6884706              18.7342
      -------------------------------------------------------------
                  HL-Gap            0.0457959 Eh            1.2462 eV
             Fermi-level           -0.3471926 Eh           -9.4476 eV

 SCC (total)                   0 d,  0 h,  0 min,  0.262 sec
 SCC setup                      ...        0 min,  0.003 sec (  1.280%)
 Dispersion                     ...        0 min,  0.004 sec (  1.675%)
 classical contributions        ...        0 min,  0.000 sec (  0.051%)
 integral evaluation            ...        0 min,  0.011 sec (  4.359%)
 iterations                     ...        0 min,  0.201 sec ( 76.619%)
 molecular gradient             ...        0 min,  0.040 sec ( 15.101%)
 printout                       ...        0 min,  0.002 sec (  0.900%)

         :::::::::::::::::::::::::::::::::::::::::::::::::::::
         ::                     SUMMARY                     ::
         :::::::::::::::::::::::::::::::::::::::::::::::::::::
         :: total energy            -239.835753619063 Eh    ::
         :: total w/o Gsasa/hb      -239.757285277278 Eh    ::
         :: gradient norm              0.125784405309 Eh/a0 ::
         :: HOMO-LUMO gap              1.246168820845 eV    ::
         ::.................................................::
         :: SCC energy              -242.442148350033 Eh    ::
         :: -> isotropic ES            0.554136309648 Eh    ::
         :: -> anisotropic ES         -0.027256493739 Eh    ::
         :: -> anisotropic XC          0.019105564360 Eh    ::
         :: -> dispersion             -0.195787207778 Eh    ::
         :: -> Gsolv                  -0.110769211070 Eh    ::
         ::    -> Gelec               -0.032300869284 Eh    ::
         ::    -> Gsasa               -0.030201643764 Eh    ::
         ::    -> Ghb                 -0.050606367397 Eh    ::
         ::    -> Gshift               0.002339669376 Eh    ::
         :: repulsion energy           2.606394730969 Eh    ::
         :: add. restraining           0.000000000000 Eh    ::
         :: total charge              -0.000000000000 e     ::
         :::::::::::::::::::::::::::::::::::::::::::::::::::::

           -------------------------------------------------
          |                Property Printout                |
           -------------------------------------------------

    * Orbital Energies and Occupations

         #    Occupation            Energy/Eh            Energy/eV
      -------------------------------------------------------------
         1        2.0000           -0.7909556             -21.5230
       ...           ...                  ...                  ...
       196        2.0000           -0.4191893             -11.4067
       197        2.0000           -0.4182448             -11.3810
       198        2.0000           -0.4158588             -11.3161
       199        2.0000           -0.4143165             -11.2741
       200        2.0000           -0.4134495             -11.2505
       201        2.0000           -0.4126980             -11.2301
       202        2.0000           -0.4110169             -11.1843
       203        2.0000           -0.4098967             -11.1539
       204        2.0000           -0.4086143             -11.1190
       205        2.0000           -0.4032073             -10.9718
       206        2.0000           -0.3943337             -10.7304
       207        2.0000           -0.3829325             -10.4201
       208        2.0000           -0.3700905             -10.0707 (HOMO)
       209                         -0.3242947              -8.8245 (LUMO)
       210                         -0.2842962              -7.7361
       211                         -0.2429101              -6.6099
       212                         -0.2407876              -6.5522
       213                         -0.2403129              -6.5392
       214                         -0.2342870              -6.3753
       215                         -0.2328163              -6.3353
       216                         -0.2288545              -6.2274
       217                         -0.2277902              -6.1985
       218                         -0.1865780              -5.0770
       219                         -0.1699172              -4.6237
       ...                                ...                  ...
       372                          0.6884706              18.7342
      -------------------------------------------------------------
                  HL-Gap            0.0457959 Eh            1.2462 eV
             Fermi-level           -0.3471926 Eh           -9.4476 eV

     #   Z          covCN         q      C6AA      α(0)
     1   6 C        2.842     0.143    24.879     8.174
     2   6 C        2.970    -0.055    29.367     8.889
     3   6 C        2.964    -0.003    28.091     8.694
     4   6 C        2.929    -0.076    29.897     8.967
     5   6 C        2.836     0.153    24.685     8.142
     6   6 C        2.920    -0.104    30.615     9.074
     7   6 C        3.744     0.099    19.011     6.220
     8   6 C        3.719     0.091    19.178     6.255
     9   6 C        3.762     0.100    18.980     6.210
    10   6 C        3.744     0.091    19.149     6.243
    11   6 C        3.743     0.080    19.312     6.269
    12   8 O        1.695    -0.352    19.924     6.026
    13   6 C        3.682     0.074    19.540     6.330
    14   8 O        1.652    -0.482    22.513     6.405
    15   8 O        1.651    -0.486    22.600     6.417
    16   8 O        1.698    -0.328    19.489     5.960
    17   8 O        1.702    -0.297    18.950     5.877
    18   6 C        3.675     0.070    19.622     6.347
    19   8 O        1.654    -0.473    22.324     6.378
    20   6 C        3.640     0.250    17.062     5.940
    21   8 O        1.696    -0.359    20.053     6.046
    22   6 C        3.745     0.114    18.774     6.181
    23   6 C        3.723     0.090    19.186     6.255
    24   6 C        3.724     0.087    19.231     6.262
    25   6 C        3.755     0.086    19.204     6.249
    26   8 O        1.654    -0.479    22.450     6.396
    27   8 O        1.699    -0.323    19.393     5.946
    28   8 O        1.653    -0.483    22.534     6.408
    29   6 C        3.747     0.069    19.491     6.297
    30   8 O        1.703    -0.285    18.732     5.843
    31   6 C        2.769     0.349    21.080     7.519
    32   8 O        0.857    -0.447    22.634     6.379
    33   6 C        2.739     0.352    21.032     7.509
    34   6 C        2.896    -0.101    30.533     9.060
    35   8 O        0.858    -0.492    23.616     6.515
    36   6 C        2.907     0.005    27.911     8.663
    37   6 C        2.898    -0.052    29.291     8.874
    38   6 C        2.898    -0.002    28.074     8.687
    39   6 C        3.807    -0.085    22.107     6.693
    40   6 C        3.728     0.118    18.739     6.180
    41   6 C        2.895    -0.061    29.508     8.906
    42   8 O        1.652    -0.489    22.666     6.427
    43   6 C        2.898    -0.037    28.908     8.815
    44   6 C        2.898    -0.052    29.289     8.873
    45   6 C        2.895    -0.037    28.930     8.819
    46   6 C        3.804    -0.063    21.709     6.633
    47   6 C        3.801    -0.065    21.739     6.638
    48   6 C        3.800    -0.060    21.652     6.625
    49   6 C        3.799    -0.054    21.542     6.608
    50   6 C        3.750    -0.111    22.682     6.792
    51   8 O        1.656    -0.436    21.564     6.269
    52   8 O        1.657    -0.431    21.455     6.253
    53   6 C        3.651     0.234    17.243     5.964
    54   6 C        3.723     0.084    19.293     6.272
    55   6 C        3.723     0.095    19.110     6.242
    56   6 C        3.722     0.087    19.241     6.264
    57   6 C        3.742     0.106    18.916     6.205
    58   8 O        1.696    -0.356    20.003     6.038
    59   6 C        3.675     0.070    19.625     6.347
    60   8 O        1.653    -0.480    22.456     6.397
    61   8 O        1.654    -0.477    22.403     6.389
    62   8 O        1.653    -0.482    22.504     6.404
    63   8 O        1.652    -0.455    21.952     6.325
    64   6 C        2.974    -0.025    28.612     8.774
    65   6 C        2.927    -0.020    28.509     8.756
    66   6 C        2.926    -0.037    28.932     8.821
    67   6 C        2.977     0.021    27.538     8.608
    68   6 C        2.925    -0.038    28.947     8.823
    69   6 C        2.925    -0.034    28.837     8.806
    70   6 C        2.976    -0.004    28.123     8.699
    71   6 C        2.923    -0.038    28.940     8.822
    72   6 C        2.918    -0.075    29.884     8.964
    73   6 C        2.842     0.146    24.812     8.163
    74   6 C        2.919    -0.053    29.328     8.881
    75   6 C        2.923    -0.034    28.854     8.809
    76   8 O        1.657    -0.443    21.691     6.287
    77   1 H        0.926     0.079     1.987     2.204
    78   1 H        0.926     0.077     2.013     2.218
    79   1 H        0.924     0.044     2.396     2.420
    80   1 H        0.923     0.058     2.222     2.331
    81   1 H        0.924     0.053     2.283     2.363
    82   1 H        0.923     0.083     1.950     2.184
    83   1 H        0.924     0.064     2.152     2.294
    84   1 H        0.924     0.024     2.674     2.557
    85   1 H        0.924     0.064     2.154     2.295
    86   1 H        0.802     0.320     0.663     1.280
    87   1 H        0.802     0.335     0.625     1.242
    88   1 H        0.924     0.049     2.335     2.390
    89   1 H        0.924     0.070     2.089     2.260
    90   1 H        0.803     0.352     0.585     1.201
    91   1 H        0.923     0.006     2.956     2.689
    92   1 H        0.923     0.028     2.616     2.529
    93   1 H        0.923     0.060     2.201     2.320
    94   1 H        0.923     0.055     2.256     2.349
    95   1 H        0.923     0.087     1.910     2.161
    96   1 H        0.804     0.361     0.564     1.180
    97   1 H        0.803     0.368     0.549     1.164
    98   1 H        0.924     0.087     1.913     2.163
    99   1 H        0.924     0.095     1.835     2.119
   100   1 H        0.926     0.082     1.955     2.187
   101   1 H        0.926     0.078     1.997     2.210
   102   1 H        0.926     0.074     2.040     2.233
   103   1 H        0.926     0.077     2.007     2.215
   104   1 H        0.924     0.070     2.084     2.257
   105   1 H        0.924     0.089     1.893     2.152
   106   1 H        0.923     0.031     2.569     2.506
   107   1 H        0.926     0.045     2.388     2.417
   108   1 H        0.803     0.334     0.627     1.244
   109   1 H        0.926     0.055     2.263     2.353
   110   1 H        0.926     0.038     2.473     2.459
   111   1 H        0.926     0.039     2.456     2.450
   112   1 H        0.924     0.038     2.482     2.464
   113   1 H        0.924     0.048     2.340     2.392
   114   1 H        0.924     0.046     2.372     2.408
   115   1 H        0.924     0.028     2.612     2.527
   116   1 H        0.924     0.032     2.552     2.498
   117   1 H        0.924     0.032     2.557     2.500
   118   1 H        0.924     0.024     2.667     2.554
   119   1 H        0.923     0.029     2.607     2.525
   120   1 H        0.924     0.042     2.421     2.433
   121   1 H        0.924     0.032     2.559     2.501
   122   1 H        0.924     0.034     2.528     2.486
   123   1 H        0.803     0.344     0.604     1.221
   124   1 H        0.804     0.362     0.560     1.176
   125   1 H        0.923     0.013     2.850     2.640
   126   1 H        0.923     0.061     2.185     2.311
   127   1 H        0.923     0.033     2.547     2.496
   128   1 H        0.923     0.050     2.314     2.379
   129   1 H        0.924     0.003     3.003     2.710
   130   1 H        0.924     0.097     1.810     2.104
   131   1 H        0.924     0.051     2.311     2.378
   132   1 H        0.803     0.369     0.545     1.160
   133   1 H        0.804     0.368     0.548     1.163
   134   1 H        0.804     0.358     0.571     1.187
   135   1 H        0.801     0.300     0.720     1.333
   136   1 H        0.926     0.071     2.071     2.250
   137   1 H        0.926     0.064     2.152     2.294
   138   1 H        0.926     0.056     2.249     2.345
   139   1 H        0.926     0.071     2.070     2.250
   140   1 H        0.926     0.038     2.472     2.459
   141   1 H        0.926     0.044     2.395     2.420
   142   1 H        0.926     0.069     2.095     2.263
   143   1 H        0.926     0.053     2.278     2.360
   144   1 H        0.804     0.352     0.583     1.200

 Mol. C6AA /au·bohr⁶  :     208863.127849
 Mol. C8AA /au·bohr⁸  :    4802006.354274
 Mol. α(0) /au        :        690.490173


Wiberg/Mayer (AO) data.
largest (>0.10) Wiberg bond orders for each atom

 ---------------------------------------------------------------------------
     #   Z sym  total        # sym  WBO       # sym  WBO       # sym  WBO
 ---------------------------------------------------------------------------
     1   6 C    3.943 --     6 C    1.390     2 C    1.335    51 O    1.073
     2   6 C    3.967 --     3 C    1.385     1 C    1.335     7 C    0.990
     3   6 C    3.986 --     4 C    1.432     2 C    1.385    13 C    1.001
     4   6 C    3.982 --     3 C    1.432     5 C    1.358    77 H    0.962
     5   6 C    3.945 --     6 C    1.380     4 C    1.358    52 O    1.081
     6   6 C    3.977 --     1 C    1.390     5 C    1.380    78 H    0.961
     7   6 C    3.935 --     2 C    0.990     8 C    0.951    79 H    0.950
                            12 O    0.946
     8   6 C    3.949 --    15 O    0.987     9 C    0.966    80 H    0.957
                             7 C    0.951
     9   6 C    3.928 --    10 C    0.970     8 C    0.966    81 H    0.946
                            17 O    0.939
    10   6 C    3.936 --     9 C    0.970    16 O    0.963    11 C    0.959
                            82 H    0.953
    11   6 C    3.939 --    18 C    0.982    12 O    0.960    10 C    0.959
                            83 H    0.945
    12   8 O    2.077 --    11 C    0.960     7 C    0.946
    13   6 C    3.958 --     3 C    1.001    14 O    0.988    85 H    0.967
                            84 H    0.956
    14   8 O    1.938 --    13 C    0.988    86 H    0.846
    15   8 O    1.953 --     8 C    0.987    87 H    0.833
    16   8 O    2.088 --    20 C    0.979    10 C    0.963
    17   8 O    2.260 --    33 C    1.084     9 C    0.939    35 O    0.140
    18   6 C    3.959 --    19 O    1.013    11 C    0.982    89 H    0.967
                            88 H    0.965
    19   8 O    1.931 --    18 C    1.013    90 H    0.857
    20   6 C    3.926 --    16 O    0.979    21 O    0.959    25 C    0.955
                            91 H    0.941
    21   8 O    2.060 --    20 C    0.959    22 C    0.946
    22   6 C    3.936 --    29 C    0.980    23 C    0.970    92 H    0.952
                            21 O    0.946
    23   6 C    3.966 --    28 O    1.007    22 C    0.970    24 C    0.967
                            93 H    0.953
    24   6 C    3.960 --    26 O    1.000    23 C    0.967    25 C    0.964
                            94 H    0.950
    25   6 C    3.938 --    27 O    0.965    24 C    0.964    20 C    0.955
                            95 H    0.952
    26   8 O    1.934 --    24 C    1.000    96 H    0.851
    27   8 O    2.090 --    53 C    0.981    25 C    0.965
    28   8 O    1.922 --    23 C    1.007    97 H    0.843
    29   6 C    3.929 --    22 C    0.980    30 O    0.966    99 H    0.963
                            98 H    0.958
    30   8 O    2.255 --    31 C    1.068    29 C    0.966    32 O    0.145
    31   6 C    3.895 --    32 O    1.706    30 O    1.068    64 C    1.030
    32   8 O    2.000 --    31 C    1.706    30 O    0.145
    33   6 C    3.893 --    35 O    1.596    34 C    1.091    17 O    1.084
    34   6 C    3.963 --    36 C    1.688    33 C    1.091   100 H    0.959
                            38 C    0.106
    35   8 O    1.979 --    33 C    1.596    17 O    0.140
    36   6 C    3.968 --    34 C    1.688    37 C    1.174   101 H    0.951
    37   6 C    3.984 --    38 C    1.758    36 C    1.174   102 H    0.957
    38   6 C    3.962 --    37 C    1.758    39 C    1.050   103 H    0.955
                            34 C    0.106
    39   6 C    3.984 --    38 C    1.050   104 H    0.964    40 C    0.956
                           105 H    0.934
    40   6 C    3.951 --    41 C    1.007    42 O    0.985    39 C    0.956
                           106 H    0.954
    41   6 C    3.984 --    43 C    1.833    40 C    1.007   107 H    0.964
                            45 C    0.130
    42   8 O    1.929 --    40 C    0.985   108 H    0.872
    43   6 C    3.990 --    41 C    1.833    44 C    1.125   109 H    0.959
    44   6 C    3.989 --    45 C    1.828    43 C    1.125   110 H    0.962
    45   6 C    3.980 --    44 C    1.828    46 C    1.029   111 H    0.964
                            41 C    0.130
    46   6 C    3.996 --    45 C    1.029    47 C    0.991   112 H    0.977
                           113 H    0.957
    47   6 C    3.993 --    48 C    1.007    46 C    0.991   115 H    0.974
                           114 H    0.965
    48   6 C    3.996 --    47 C    1.007    49 C    1.006   117 H    0.977
                           116 H    0.976
    49   6 C    3.995 --    50 C    1.020    48 C    1.006   118 H    0.976
                           119 H    0.972
    50   6 C    3.996 --    49 C    1.020   122 H    0.987   120 H    0.986
                           121 H    0.984
    51   8 O    2.084 --     1 C    1.073   123 H    0.836
    52   8 O    2.091 --     5 C    1.081   124 H    0.850
    53   6 C    3.921 --    27 O    0.981    54 C    0.957    58 O    0.954
                           125 H    0.944
    54   6 C    3.959 --    62 O    1.000    55 C    0.970    53 C    0.957
                           126 H    0.955
    55   6 C    3.966 --    61 O    1.004    54 C    0.970    56 C    0.967
                           127 H    0.959
    56   6 C    3.968 --    60 O    1.010    55 C    0.967    57 C    0.966
                           128 H    0.957
    57   6 C    3.937 --    59 C    0.981    56 C    0.966    58 O    0.952
                           129 H    0.945
    58   8 O    2.062 --    53 C    0.954    57 C    0.952
    59   6 C    3.948 --    63 O    1.005    57 C    0.981   131 H    0.963
                           130 H    0.959
    60   8 O    1.924 --    56 C    1.010   132 H    0.841
    61   8 O    1.933 --    55 C    1.004   133 H    0.848
    62   8 O    1.926 --    54 C    1.000   134 H    0.853
    63   8 O    1.961 --    59 C    1.005   135 H    0.862
    64   6 C    3.976 --    69 C    1.369    65 C    1.364    31 C    1.030
    65   6 C    3.983 --    66 C    1.471    64 C    1.364   136 H    0.957
    66   6 C    3.986 --    65 C    1.471    67 C    1.373   137 H    0.959
    67   6 C    3.986 --    66 C    1.373    68 C    1.370    70 C    1.057
    68   6 C    3.987 --    69 C    1.473    67 C    1.370   138 H    0.965
    69   6 C    3.985 --    68 C    1.473    64 C    1.369   139 H    0.953
    70   6 C    3.987 --    71 C    1.375    75 C    1.370    67 C    1.057
    71   6 C    3.988 --    72 C    1.468    70 C    1.375   140 H    0.967
                            74 C    0.100
    72   6 C    3.986 --    71 C    1.468    73 C    1.364   141 H    0.965
    73   6 C    3.931 --    72 C    1.364    74 C    1.357    76 O    1.069
    74   6 C    3.987 --    75 C    1.475    73 C    1.357   142 H    0.964
                            71 C    0.100
    75   6 C    3.987 --    74 C    1.475    70 C    1.370   143 H    0.965
    76   8 O    2.078 --    73 C    1.069   144 H    0.857
    77   1 H    0.993 --     4 C    0.962
    78   1 H    0.993 --     6 C    0.961
    79   1 H    0.998 --     7 C    0.950
    80   1 H    0.997 --     8 C    0.957
    81   1 H    0.997 --     9 C    0.946
    82   1 H    0.993 --    10 C    0.953
    83   1 H    0.996 --    11 C    0.945
    84   1 H    0.999 --    13 C    0.956
    85   1 H    0.996 --    13 C    0.967
    86   1 H    0.897 --    14 O    0.846
    87   1 H    0.887 --    15 O    0.833
    88   1 H    0.998 --    18 C    0.965
    89   1 H    0.995 --    18 C    0.967
    90   1 H    0.876 --    19 O    0.857
    91   1 H    1.000 --    20 C    0.941
    92   1 H    0.999 --    22 C    0.952
    93   1 H    0.996 --    23 C    0.953
    94   1 H    0.997 --    24 C    0.950
    95   1 H    0.992 --    25 C    0.952
    96   1 H    0.870 --    26 O    0.851
    97   1 H    0.865 --    28 O    0.843
    98   1 H    0.992 --    29 C    0.958
    99   1 H    0.990 --    29 C    0.963
   100   1 H    0.993 --    34 C    0.959
   101   1 H    0.994 --    36 C    0.951
   102   1 H    0.994 --    37 C    0.957
   103   1 H    0.994 --    38 C    0.955
   104   1 H    0.994 --    39 C    0.964
   105   1 H    0.981 --    39 C    0.934
   106   1 H    0.994 --    40 C    0.954
   107   1 H    0.998 --    41 C    0.964
   108   1 H    0.888 --    42 O    0.872
   109   1 H    0.997 --    43 C    0.959
   110   1 H    0.998 --    44 C    0.962
   111   1 H    0.998 --    45 C    0.964
   112   1 H    0.998 --    46 C    0.977
   113   1 H    0.997 --    46 C    0.957
   114   1 H    0.998 --    47 C    0.965
   115   1 H    0.999 --    47 C    0.974
   116   1 H    0.999 --    48 C    0.976
   117   1 H    0.999 --    48 C    0.977
   118   1 H    0.999 --    49 C    0.976
   119   1 H    0.999 --    49 C    0.972
   120   1 H    0.998 --    50 C    0.986
   121   1 H    0.999 --    50 C    0.984
   122   1 H    0.999 --    50 C    0.987
   123   1 H    0.882 --    51 O    0.836
   124   1 H    0.868 --    52 O    0.850
   125   1 H    1.000 --    53 C    0.944
   126   1 H    0.996 --    54 C    0.955
   127   1 H    0.999 --    55 C    0.959
   128   1 H    0.997 --    56 C    0.957
   129   1 H    1.000 --    57 C    0.945
   130   1 H    0.990 --    59 C    0.959
   131   1 H    0.997 --    59 C    0.963
   132   1 H    0.863 --    60 O    0.841
   133   1 H    0.864 --    61 O    0.848
   134   1 H    0.872 --    62 O    0.853
   135   1 H    0.909 --    63 O    0.862
   136   1 H    0.994 --    65 C    0.957
   137   1 H    0.995 --    66 C    0.959
   138   1 H    0.996 --    68 C    0.965
   139   1 H    0.994 --    69 C    0.953
   140   1 H    0.999 --    71 C    0.967
   141   1 H    0.997 --    72 C    0.965
   142   1 H    0.995 --    74 C    0.964
   143   1 H    0.997 --    75 C    0.965
   144   1 H    0.875 --    76 O    0.857
 ---------------------------------------------------------------------------

Topologies differ in total number of bonds
Writing topology from bond orders to xtbtopo.mol

molecular dipole:
                 x           y           z       tot (Debye)
 q only:        2.544       2.153       4.168
   full:        2.333       1.940       5.187      15.275
molecular quadrupole (traceless):
                xx          xy          yy          xz          yz          zz
 q only:        4.173       6.110      14.650      20.000      14.049     -18.823
  q+dip:       -9.726       5.100      16.402      19.093      22.904      -6.676
   full:       -9.722       5.603      17.358      20.049      19.615      -7.636


           -------------------------------------------------
          | TOTAL ENERGY             -239.835753619063 Eh   |
          | GRADIENT NORM               0.125784405309 Eh/α |
          | HOMO-LUMO GAP               1.246168820845 eV   |
           -------------------------------------------------

------------------------------------------------------------------------
 * finished run on 2026/06/19 at 18:53:12.092     
------------------------------------------------------------------------
 total:
 * wall-time:     0 d,  0 h,  0 min,  0.311 sec
 *  cpu-time:     0 d,  0 h,  0 min,  4.799 sec
 * ratio c/w:    15.414 speedup
 SCF:
 * wall-time:     0 d,  0 h,  0 min,  0.263 sec
 *  cpu-time:     0 d,  0 h,  0 min,  4.180 sec
 * ratio c/w:    15.874 speedup

normal termination of xtb
