      -----------------------------------------------------------      
     |                   =====================                   |     
     |                           x T B                           |     
     |                   =====================                   |     
     |                         S. Grimme                         |     
     |          Mulliken Center for Theoretical Chemistry        |     
     |                    University of Bonn                     |     
      -----------------------------------------------------------      

   * xtb version 6.7.1 (edcfbbe) compiled by 'albert@albert-system' on 2024-07-22

   xtb is free software: you can redistribute it and/or modify it under
   the terms of the GNU Lesser General Public License as published by
   the Free Software Foundation, either version 3 of the License, or
   (at your option) any later version.
   
   xtb is distributed in the hope that it will be useful,
   but WITHOUT ANY WARRANTY; without even the implied warranty of
   MERCHANTABILITY or FITNESS FOR A PARTICULAR PURPOSE.  See the
   GNU Lesser General Public License for more details.
   
   Cite this work as:
   * C. Bannwarth, E. Caldeweyher, S. Ehlert, A. Hansen, P. Pracht,
     J. Seibert, S. Spicher, S. Grimme, WIREs Comput. Mol. Sci., 2020, 11,
     e01493. DOI: 10.1002/wcms.1493
   
   for GFN2-xTB:
   * C. Bannwarth, S. Ehlert and S. Grimme., J. Chem. Theory Comput., 2019,
     15, 1652-1671. DOI: 10.1021/acs.jctc.8b01176
   for GFN1-xTB:
   * S. Grimme, C. Bannwarth, P. Shushkov, J. Chem. Theory Comput., 2017,
     13, 1989-2009. DOI: 10.1021/acs.jctc.7b00118
   for GFN0-xTB:
   * P. Pracht, E. Caldeweyher, S. Ehlert, S. Grimme, ChemRxiv, 2019, preprint.
     DOI: 10.26434/chemrxiv.8326202.v1
   for GFN-FF:
   * S. Spicher and S. Grimme, Angew. Chem. Int. Ed., 2020, 59, 15665-15673.
     DOI: 10.1002/anie.202004239
   
   for ALPB and GBSA implicit solvation:
   * S. Ehlert, M. Stahn, S. Spicher, S. Grimme, J. Chem. Theory Comput.,
     2021, 17, 4250-4261. DOI: 10.1021/acs.jctc.1c00471
   
   for ddCOSMO and CPCM-X implicit solvation:
   * M. Stahn, S. Ehlert, S. Grimme, J. Phys. Chem. A,
     2023, XX, XXXX-XXXX. DOI: 10.1021/acs.jpca.3c04382
   
   for DFT-D4:
   * E. Caldeweyher, C. Bannwarth and S. Grimme, J. Chem. Phys., 2017,
     147, 034112. DOI: 10.1063/1.4993215
   * E. Caldeweyher, S. Ehlert, A. Hansen, H. Neugebauer, S. Spicher,
     C. Bannwarth and S. Grimme, J. Chem. Phys., 2019, 150, 154122.
     DOI: 10.1063/1.5090222
   * E. Caldeweyher, J.-M. Mewes, S. Ehlert and S. Grimme, Phys. Chem. Chem. Phys.
     2020, 22, 8499-8512. DOI: 10.1039/D0CP00502A
   
   for sTDA-xTB:
   * S. Grimme and C. Bannwarth, J. Chem. Phys., 2016, 145, 054103.
     DOI: 10.1063/1.4959605
   
   in the mass-spec context:
   * V. Asgeirsson, C. Bauer and S. Grimme, Chem. Sci., 2017, 8, 4879.
     DOI: 10.1039/c7sc00601b
   * J. Koopman and S. Grimme, ACS Omega 2019, 4, 12, 15120-15133.
     DOI: 10.1021/acsomega.9b02011
   
   for metadynamics refer to:
   * S. Grimme, J. Chem. Theory Comput., 2019, 155, 2847-2862
     DOI: 10.1021/acs.jctc.9b00143
   
   for SPH calculations refer to:
   * S. Spicher and S. Grimme, J. Chem. Theory Comput., 2021, 17, 1701-1714
     DOI: 10.1021/acs.jctc.0c01306
   
   for ONIOM refer to:
   * C. Plett, A. Katbashev, S. Ehlert, S. Grimme, M. Bursch,
     Phys. Chem. Chem. Phys., 2023, 25, 17860-17868. DOI: 10.1039/D3CP02178E
   
   for DIPRO refer to:
   * J. Kohn, N. Gildemeister, S. Grimme, D. Fazzi, A. Hansen,
     J. Chem. Phys., 2023, just accepted.
   
   for PTB refer to:
   * S. Grimme, M. Mueller, A. Hansen, J. Chem. Phys., 2023, 158, 124111.
     DOI: 10.1063/5.0137838
   
   with help from (in alphabetical order)
   P. Atkinson, C. Bannwarth, F. Bohle, G. Brandenburg, E. Caldeweyher
   M. Checinski, S. Dohm, S. Ehlert, S. Ehrlich, I. Gerasimov, C. Hölzer
   A. Katbashev, J. Kohn, J. Koopman, C. Lavigne, S. Lehtola, F. März, M. Müller,
   F. Musil, H. Neugebauer, J. Pisarek, C. Plett, P. Pracht, F. Pultar,
   J. Seibert, P. Shushkov, S. Spicher, M. Stahn, M. Steiner, T. Strunk,
   J. Stückrath, T. Rose, and J. Unsleber
   
 * started run on 2026/06/19 at 18:52:16.697     
   ID    Z sym.   atoms
    1    6 C      1-11, 13, 18, 20, 22-25, 29, 31, 33, 34, 36-41, 43-50,
                  53-57, 59, 64
    2    8 O      12, 14-17, 19, 21, 26-28, 30, 32, 35, 42, 51, 52, 58, 60-63
    3    1 H      65-126

           -------------------------------------------------
          |                Calculation Setup                |
           -------------------------------------------------

          program call               : xtb PAPU-0072/conf01.xyz --gfn 2 --alpb water --chrg 0 --uhf 0 --namespace PAPU-0072/conf01_water
          hostname                   : cpu10
          calculation namespace      : PAPU-0072/conf01_water
          coordinate file            : PAPU-0072/conf01.xyz
          omp threads                :                    16


           -------------------------------------------------
          |                 G F N 2 - x T B                 |
           -------------------------------------------------

        Reference                      10.1021/acs.jctc.8b01176
      * Hamiltonian:
        H0-scaling (s, p, d)           1.850000    2.230000    2.230000
        zeta-weighting                 0.500000
      * Dispersion:
        s8                             2.700000
        a1                             0.520000
        a2                             5.000000
        s9                             5.000000
      * Repulsion:
        kExp                           1.500000    1.000000
        rExp                           1.000000
      * Coulomb:
        alpha                          2.000000
        third order                    shell-resolved
        anisotropic                    true
        a3                             3.000000
        a5                             4.000000
        cn-shift                       1.200000
        cn-exp                         4.000000
        max-rad                        5.000000

      * Solvation model:               ALPB
        Solvent                        water
        Parameter file                 internal GFN2-xTB/ALPB
        Dielectric constant                8.0200E+01
        Reference state                gsolv [1 M gas/solution]
        Free energy shift                  1.0808E-03 Eh       6.7819E-01 kcal/mol
        Temperature                        2.9815E+02 K
        Density                            1.0000E+00 kg/L
        Solvent mass                       1.8000E+01 g/mol
        Interaction kernel             P16
        Born radius scaling (c1)           1.4744E+00
        Born radii integrator          GBOBC
        Born offset                        0.0000E+00 a0       0.0000E+00 AA
        H-bond correction              true
        Ion screening                  false
        Surface tension                    1.0000E-05 Eh       1.5569E+01 dyn/cm
        Grid points                               230 per atom

          ...................................................
          :                      SETUP                      :
          :.................................................:
          :  # basis functions                 318          :
          :  # atomic orbitals                 318          :
          :  # shells                          190          :
          :  # electrons                       360          :
          :  max. iterations                   250          :
          :  Hamiltonian                  GFN2-xTB          :
          :  restarted?                      false          :
          :  GBSA solvation                   true          :
          :  PC potential                    false          :
          :  electronic temp.          300.0000000     K    :
          :  accuracy                    1.0000000          :
          :  -> integral cutoff          0.2500000E+02      :
          :  -> integral neglect         0.1000000E-07      :
          :  -> SCF convergence          0.1000000E-05 Eh   :
          :  -> wf. convergence          0.1000000E-03 e    :
          :  Broyden damping             0.4000000          :
          :  net charge                          0          :
          :  unpaired electrons                  0          :
          ...................................................

 iter      E             dE          RMSdq      gap      omega  full diag
   1   -210.9319703 -0.210932E+03  0.449E+00    2.47       0.0  T
   2   -211.1683528 -0.236382E+00  0.243E+00    2.00       1.0  T
   3   -211.1552846  0.130682E-01  0.106E+00    2.06       1.0  T
   4   -211.1879949 -0.327103E-01  0.347E-01    1.83       1.0  T
   5   -211.1944242 -0.642927E-02  0.145E-01    1.85       1.0  T
   6   -211.1952062 -0.782017E-03  0.719E-02    1.85       1.0  T
   7   -211.1953338 -0.127606E-03  0.326E-02    1.87       1.0  T
   8   -211.1953707 -0.368997E-04  0.139E-02    1.87       1.0  T
   9   -211.1953760 -0.526573E-05  0.686E-03    1.87       1.3  T
  10   -211.1953774 -0.144504E-05  0.397E-03    1.87       2.2  T
  11   -211.1953781 -0.649077E-06  0.195E-03    1.87       4.6  T
  12   -211.1953782 -0.108961E-06  0.730E-04    1.87      12.2  T
  13   -211.1953782 -0.185624E-07  0.354E-04    1.87      25.1  T

   *** convergence criteria satisfied after 13 iterations ***

         #    Occupation            Energy/Eh            Energy/eV
      -------------------------------------------------------------
         1        2.0000           -0.7681231             -20.9017
       ...           ...                  ...                  ...
       174        2.0000           -0.4124804             -11.2242
       175        2.0000           -0.4111040             -11.1867
       176        2.0000           -0.4074196             -11.0865
       177        2.0000           -0.4063959             -11.0586
       178        2.0000           -0.4000754             -10.8866
       179        2.0000           -0.3859325             -10.5018
       180        2.0000           -0.3798641             -10.3366 (HOMO)
       181                         -0.3111206              -8.4660 (LUMO)
       182                         -0.2551411              -6.9427
       183                         -0.2472523              -6.7281
       184                         -0.2334292              -6.3519
       185                         -0.2304158              -6.2699
       ...                                ...                  ...
       318                          0.6745595              18.3557
      -------------------------------------------------------------
                  HL-Gap            0.0687434 Eh            1.8706 eV
             Fermi-level           -0.3454924 Eh           -9.4013 eV

 SCC (total)                   0 d,  0 h,  0 min,  0.203 sec
 SCC setup                      ...        0 min,  0.003 sec (  1.264%)
 Dispersion                     ...        0 min,  0.002 sec (  1.160%)
 classical contributions        ...        0 min,  0.000 sec (  0.045%)
 integral evaluation            ...        0 min,  0.009 sec (  4.265%)
 iterations                     ...        0 min,  0.160 sec ( 78.718%)
 molecular gradient             ...        0 min,  0.029 sec ( 14.236%)
 printout                       ...        0 min,  0.001 sec (  0.294%)

         :::::::::::::::::::::::::::::::::::::::::::::::::::::
         ::                     SUMMARY                     ::
         :::::::::::::::::::::::::::::::::::::::::::::::::::::
         :: total energy            -209.133374325071 Eh    ::
         :: total w/o Gsasa/hb      -209.099088962527 Eh    ::
         :: gradient norm              0.118409360684 Eh/a0 ::
         :: HOMO-LUMO gap              1.870604323586 eV    ::
         ::.................................................::
         :: SCC energy              -211.184820255366 Eh    ::
         :: -> isotropic ES            0.541330835482 Eh    ::
         :: -> anisotropic ES         -0.024055435329 Eh    ::
         :: -> anisotropic XC          0.006632723388 Eh    ::
         :: -> dispersion             -0.160036624725 Eh    ::
         :: -> Gsolv                  -0.082118057197 Eh    ::
         ::    -> Gelec               -0.047832694654 Eh    ::
         ::    -> Gsasa                0.008988260132 Eh    ::
         ::    -> Ghb                 -0.044354382374 Eh    ::
         ::    -> Gshift               0.001080759698 Eh    ::
         :: repulsion energy           2.051445930295 Eh    ::
         :: add. restraining           0.000000000000 Eh    ::
         :: total charge               0.000000000000 e     ::
         :::::::::::::::::::::::::::::::::::::::::::::::::::::

           -------------------------------------------------
          |                Property Printout                |
           -------------------------------------------------

    * Orbital Energies and Occupations

         #    Occupation            Energy/Eh            Energy/eV
      -------------------------------------------------------------
         1        2.0000           -0.7681231             -20.9017
       ...           ...                  ...                  ...
       168        2.0000           -0.4219541             -11.4820
       169        2.0000           -0.4191857             -11.4066
       170        2.0000           -0.4165446             -11.3348
       171        2.0000           -0.4150687             -11.2946
       172        2.0000           -0.4145384             -11.2802
       173        2.0000           -0.4129432             -11.2368
       174        2.0000           -0.4124804             -11.2242
       175        2.0000           -0.4111040             -11.1867
       176        2.0000           -0.4074196             -11.0865
       177        2.0000           -0.4063959             -11.0586
       178        2.0000           -0.4000754             -10.8866
       179        2.0000           -0.3859325             -10.5018
       180        2.0000           -0.3798641             -10.3366 (HOMO)
       181                         -0.3111206              -8.4660 (LUMO)
       182                         -0.2551411              -6.9427
       183                         -0.2472523              -6.7281
       184                         -0.2334292              -6.3519
       185                         -0.2304158              -6.2699
       186                         -0.2256113              -6.1392
       187                         -0.1614124              -4.3923
       188                         -0.1573680              -4.2822
       189                         -0.1098866              -2.9902
       190                         -0.0892813              -2.4295
       191                         -0.0752566              -2.0478
       ...                                ...                  ...
       318                          0.6745595              18.3557
      -------------------------------------------------------------
                  HL-Gap            0.0687434 Eh            1.8706 eV
             Fermi-level           -0.3454924 Eh           -9.4013 eV

     #   Z          covCN         q      C6AA      α(0)
     1   6 C        2.841     0.141    24.923     8.182
     2   6 C        2.975    -0.033    28.818     8.806
     3   6 C        2.964    -0.003    28.093     8.694
     4   6 C        2.927    -0.088    30.218     9.015
     5   6 C        2.837     0.147    24.802     8.161
     6   6 C        2.919    -0.099    30.489     9.055
     7   6 C        3.739     0.107    18.898     6.203
     8   6 C        3.722     0.096    19.106     6.242
     9   6 C        3.749     0.111    18.824     6.188
    10   6 C        3.752     0.099    18.998     6.216
    11   6 C        3.737     0.090    19.164     6.247
    12   8 O        1.695    -0.344    19.782     6.005
    13   6 C        3.682     0.075    19.526     6.328
    14   8 O        1.651    -0.492    22.726     6.435
    15   8 O        1.651    -0.497    22.827     6.450
    16   8 O        1.699    -0.323    19.404     5.947
    17   8 O        1.702    -0.303    19.040     5.891
    18   6 C        3.676     0.075    19.540     6.333
    19   8 O        1.654    -0.484    22.553     6.411
    20   6 C        3.642     0.252    17.014     5.930
    21   8 O        1.697    -0.355    19.988     6.036
    22   6 C        3.746     0.112    18.809     6.186
    23   6 C        3.721     0.094    19.130     6.247
    24   6 C        3.721     0.095    19.114     6.244
    25   6 C        3.731     0.091    19.159     6.248
    26   8 O        1.653    -0.480    22.473     6.399
    27   8 O        1.698    -0.334    19.596     5.977
    28   8 O        1.653    -0.494    22.774     6.442
    29   6 C        3.739     0.070    19.490     6.299
    30   8 O        1.704    -0.270    18.477     5.804
    31   6 C        2.751     0.364    20.827     7.473
    32   8 O        0.857    -0.456    22.836     6.407
    33   6 C        2.721     0.355    20.979     7.498
    34   6 C        2.896    -0.079    29.983     8.978
    35   8 O        0.857    -0.467    23.067     6.439
    36   6 C        2.903     0.004    27.926     8.665
    37   6 C        2.898    -0.036    28.894     8.813
    38   6 C        2.895    -0.015    28.377     8.734
    39   6 C        3.805    -0.074    21.903     6.663
    40   6 C        3.727     0.127    18.602     6.158
    41   6 C        2.894    -0.069    29.710     8.937
    42   8 O        1.652    -0.518    23.275     6.513
    43   6 C        2.898    -0.046    29.140     8.851
    44   6 C        2.897    -0.049    29.210     8.861
    45   6 C        2.896    -0.038    28.937     8.820
    46   6 C        3.805    -0.063    21.708     6.633
    47   6 C        3.802    -0.052    21.510     6.603
    48   6 C        3.800    -0.062    21.690     6.631
    49   6 C        3.798    -0.054    21.548     6.609
    50   6 C        3.750    -0.110    22.672     6.791
    51   8 O        1.656    -0.451    21.861     6.312
    52   8 O        1.657    -0.452    21.878     6.314
    53   6 C        3.632     0.233    17.324     5.992
    54   6 C        3.724     0.090    19.189     6.255
    55   6 C        3.724     0.099    19.055     6.233
    56   6 C        3.722     0.093    19.145     6.249
    57   6 C        3.740     0.098    19.037     6.226
    58   8 O        1.695    -0.358    20.046     6.045
    59   6 C        3.675     0.070    19.625     6.348
    60   8 O        1.653    -0.492    22.725     6.435
    61   8 O        1.654    -0.495    22.788     6.444
    62   8 O        1.652    -0.480    22.460     6.398
    63   8 O        1.654    -0.499    22.871     6.456
    64   6 C        3.754    -0.160    23.657     6.936
    65   1 H        0.926     0.065     2.142     2.289
    66   1 H        0.926     0.073     2.058     2.243
    67   1 H        0.924     0.040     2.449     2.447
    68   1 H        0.923     0.062     2.175     2.306
    69   1 H        0.923     0.029     2.595     2.519
    70   1 H        0.923     0.094     1.844     2.124
    71   1 H        0.923     0.050     2.323     2.383
    72   1 H        0.924     0.060     2.197     2.318
    73   1 H        0.924     0.028     2.622     2.532
    74   1 H        0.802     0.328     0.642     1.259
    75   1 H        0.802     0.341     0.611     1.228
    76   1 H        0.924     0.063     2.168     2.303
    77   1 H        0.924     0.053     2.281     2.362
    78   1 H        0.803     0.352     0.584     1.201
    79   1 H        0.924     0.007     2.932     2.678
    80   1 H        0.923     0.035     2.522     2.484
    81   1 H        0.923     0.049     2.328     2.386
    82   1 H        0.923     0.049     2.339     2.392
    83   1 H        0.924     0.068     2.104     2.269
    84   1 H        0.803     0.347     0.596     1.212
    85   1 H        0.803     0.378     0.528     1.141
    86   1 H        0.924     0.081     1.973     2.197
    87   1 H        0.924     0.102     1.763     2.076
    88   1 H        0.926     0.088     1.894     2.152
    89   1 H        0.926     0.075     2.029     2.227
    90   1 H        0.926     0.069     2.099     2.265
    91   1 H        0.926     0.064     2.150     2.293
    92   1 H        0.924     0.075     2.032     2.229
    93   1 H        0.924     0.073     2.058     2.243
    94   1 H        0.923     0.016     2.798     2.616
    95   1 H        0.926     0.058     2.224     2.332
    96   1 H        0.804     0.361     0.563     1.179
    97   1 H        0.926     0.042     2.426     2.436
    98   1 H        0.926     0.051     2.303     2.373
    99   1 H        0.926     0.005     2.980     2.699
   100   1 H        0.924     0.043     2.411     2.428
   101   1 H        0.924     0.040     2.444     2.445
   102   1 H        0.924     0.032     2.555     2.500
   103   1 H        0.924     0.027     2.629     2.536
   104   1 H        0.924     0.028     2.613     2.528
   105   1 H        0.924     0.040     2.455     2.450
   106   1 H        0.924     0.028     2.608     2.526
   107   1 H        0.923     0.031     2.579     2.511
   108   1 H        0.924     0.037     2.486     2.466
   109   1 H        0.924     0.040     2.455     2.450
   110   1 H        0.924     0.033     2.547     2.496
   111   1 H        0.804     0.380     0.524     1.137
   112   1 H        0.804     0.379     0.524     1.137
   113   1 H        0.924     0.055     2.262     2.352
   114   1 H        0.923     0.041     2.441     2.443
   115   1 H        0.923     0.039     2.466     2.456
   116   1 H        0.923     0.057     2.230     2.335
   117   1 H        0.923     0.044     2.390     2.418
   118   1 H        0.924     0.057     2.233     2.337
   119   1 H        0.924     0.072     2.068     2.249
   120   1 H        0.803     0.375     0.533     1.147
   121   1 H        0.804     0.375     0.532     1.146
   122   1 H        0.802     0.334     0.626     1.243
   123   1 H        0.803     0.359     0.567     1.183
   124   1 H        0.925     0.108     1.715     2.048
   125   1 H        0.925     0.107     1.718     2.050
   126   1 H        0.925     0.094     1.845     2.124

 Mol. C6AA /au·bohr⁶  :     148172.223504
 Mol. C8AA /au·bohr⁸  :    3326286.861952
 Mol. α(0) /au        :        572.873144


Wiberg/Mayer (AO) data.
largest (>0.10) Wiberg bond orders for each atom

 ---------------------------------------------------------------------------
     #   Z sym  total        # sym  WBO       # sym  WBO       # sym  WBO
 ---------------------------------------------------------------------------
     1   6 C    3.944 --     6 C    1.394     2 C    1.332    51 O    1.074
     2   6 C    3.976 --     3 C    1.394     1 C    1.332     7 C    0.992
     3   6 C    3.987 --     4 C    1.424     2 C    1.394    13 C    1.002
     4   6 C    3.981 --     3 C    1.424     5 C    1.364    65 H    0.962
     5   6 C    3.944 --     6 C    1.375     4 C    1.364    52 O    1.078
     6   6 C    3.978 --     1 C    1.394     5 C    1.375    66 H    0.961
     7   6 C    3.943 --     2 C    0.992    12 O    0.953     8 C    0.951
                            67 H    0.951
     8   6 C    3.951 --    15 O    0.988     9 C    0.968    68 H    0.955
                             7 C    0.951
     9   6 C    3.931 --    10 C    0.968     8 C    0.968    69 H    0.955
                            17 O    0.936
    10   6 C    3.930 --     9 C    0.968    11 C    0.959    16 O    0.954
                            70 H    0.950
    11   6 C    3.946 --    18 C    0.984    12 O    0.968    10 C    0.959
                            71 H    0.949
    12   8 O    2.058 --    11 C    0.968     7 C    0.953
    13   6 C    3.957 --     3 C    1.002    14 O    0.988    72 H    0.968
                            73 H    0.955
    14   8 O    1.930 --    13 C    0.988    74 H    0.847
    15   8 O    1.938 --     8 C    0.988    75 H    0.824
    16   8 O    2.107 --    20 C    0.980    10 C    0.954
    17   8 O    2.246 --    33 C    1.068     9 C    0.936    35 O    0.137
    18   6 C    3.959 --    19 O    1.010    11 C    0.984    76 H    0.967
                            77 H    0.965
    19   8 O    1.924 --    18 C    1.010    78 H    0.855
    20   6 C    3.927 --    16 O    0.980    21 O    0.961    25 C    0.954
                            79 H    0.942
    21   8 O    2.063 --    20 C    0.961    22 C    0.950
    22   6 C    3.940 --    29 C    0.984    23 C    0.969    80 H    0.950
                            21 O    0.950
    23   6 C    3.967 --    28 O    1.008    22 C    0.969    24 C    0.965
                            81 H    0.957
    24   6 C    3.962 --    26 O    1.003    23 C    0.965    25 C    0.963
                            82 H    0.952
    25   6 C    3.940 --    24 C    0.963    27 O    0.958    83 H    0.956
                            20 C    0.954
    26   8 O    1.935 --    24 C    1.003    84 H    0.828
    27   8 O    2.101 --    53 C    0.983    25 C    0.958
    28   8 O    1.914 --    23 C    1.008    85 H    0.833
    29   6 C    3.926 --    22 C    0.984    87 H    0.962    86 H    0.961
                            30 O    0.959
    30   8 O    2.292 --    31 C    1.106    29 C    0.959    32 O    0.158
    31   6 C    3.899 --    32 O    1.717    30 O    1.106    64 C    1.016
    32   8 O    2.001 --    31 C    1.717    30 O    0.158
    33   6 C    3.899 --    35 O    1.640    34 C    1.088    17 O    1.068
    34   6 C    3.969 --    36 C    1.707    33 C    1.088    88 H    0.957
                            38 C    0.112
    35   8 O    1.993 --    33 C    1.640    17 O    0.137
    36   6 C    3.973 --    34 C    1.707    37 C    1.163    89 H    0.956
    37   6 C    3.987 --    38 C    1.774    36 C    1.163    90 H    0.959
    38   6 C    3.958 --    37 C    1.774    39 C    1.042    91 H    0.959
                            34 C    0.112
    39   6 C    3.983 --    38 C    1.042    93 H    0.966    92 H    0.963
                            40 C    0.942
    40   6 C    3.946 --    41 C    1.009    42 O    0.980    94 H    0.953
                            39 C    0.942
    41   6 C    3.976 --    43 C    1.839    40 C    1.009    95 H    0.963
                            45 C    0.114
    42   8 O    1.901 --    40 C    0.980    96 H    0.855
    43   6 C    3.989 --    41 C    1.839    44 C    1.112    97 H    0.950
    44   6 C    3.988 --    45 C    1.832    43 C    1.112    98 H    0.960
    45   6 C    3.984 --    44 C    1.832    46 C    1.033    99 H    0.958
                            41 C    0.114
    46   6 C    3.995 --    45 C    1.033    47 C    0.986   101 H    0.973
                           100 H    0.955
    47   6 C    3.990 --    48 C    1.007    46 C    0.986   103 H    0.977
                           102 H    0.967
    48   6 C    3.995 --    47 C    1.007    49 C    1.006   104 H    0.977
                           105 H    0.974
    49   6 C    3.996 --    50 C    1.022    48 C    1.006   106 H    0.977
                           107 H    0.977
    50   6 C    3.995 --    49 C    1.022   110 H    0.987   108 H    0.984
                           109 H    0.981
    51   8 O    2.077 --     1 C    1.074   111 H    0.836
    52   8 O    2.074 --     5 C    1.078   112 H    0.838
    53   6 C    3.912 --    27 O    0.983    58 O    0.950    54 C    0.949
                           113 H    0.938
    54   6 C    3.960 --    62 O    1.000    55 C    0.969   114 H    0.954
                            53 C    0.949
    55   6 C    3.963 --    61 O    1.001    54 C    0.969    56 C    0.968
                           115 H    0.959
    56   6 C    3.961 --    60 O    0.999    57 C    0.968    55 C    0.968
                           116 H    0.957
    57   6 C    3.932 --    59 C    0.984    56 C    0.968   117 H    0.955
                            58 O    0.941
    58   8 O    2.072 --    53 C    0.950    57 C    0.941
    59   6 C    3.959 --    63 O    1.013    57 C    0.984   119 H    0.967
                           118 H    0.962
    60   8 O    1.938 --    56 C    0.999   120 H    0.831
    61   8 O    1.924 --    55 C    1.001   121 H    0.841
    62   8 O    1.936 --    54 C    1.000   122 H    0.844
    63   8 O    1.915 --    59 C    1.013   123 H    0.829
    64   6 C    3.980 --    31 C    1.016   126 H    0.971   125 H    0.953
                           124 H    0.937
    65   1 H    0.995 --     4 C    0.962
    66   1 H    0.994 --     6 C    0.961
    67   1 H    0.998 --     7 C    0.951
    68   1 H    0.996 --     8 C    0.955
    69   1 H    0.999 --     9 C    0.955
    70   1 H    0.991 --    10 C    0.950
    71   1 H    0.997 --    11 C    0.949
    72   1 H    0.996 --    13 C    0.968
    73   1 H    0.999 --    13 C    0.955
    74   1 H    0.892 --    14 O    0.847
    75   1 H    0.884 --    15 O    0.824
    76   1 H    0.995 --    18 C    0.967
    77   1 H    0.997 --    18 C    0.965
    78   1 H    0.876 --    19 O    0.855
    79   1 H    1.000 --    20 C    0.942
    80   1 H    0.999 --    22 C    0.950
    81   1 H    0.997 --    23 C    0.957
    82   1 H    0.998 --    24 C    0.952
    83   1 H    0.995 --    25 C    0.956
    84   1 H    0.879 --    26 O    0.828
    85   1 H    0.857 --    28 O    0.833
    86   1 H    0.993 --    29 C    0.961
    87   1 H    0.989 --    29 C    0.962
    88   1 H    0.992 --    34 C    0.957
    89   1 H    0.994 --    36 C    0.956
    90   1 H    0.995 --    37 C    0.959
    91   1 H    0.996 --    38 C    0.959
    92   1 H    0.991 --    39 C    0.963
    93   1 H    0.994 --    39 C    0.966
    94   1 H    0.999 --    40 C    0.953
    95   1 H    0.996 --    41 C    0.963
    96   1 H    0.869 --    42 O    0.855
    97   1 H    0.998 --    43 C    0.950
    98   1 H    0.997 --    44 C    0.960
    99   1 H    1.000 --    45 C    0.958
   100   1 H    0.994 --    46 C    0.955
   101   1 H    0.998 --    46 C    0.973
   102   1 H    0.999 --    47 C    0.967
   103   1 H    0.999 --    47 C    0.977
   104   1 H    0.999 --    48 C    0.977
   105   1 H    0.998 --    48 C    0.974
   106   1 H    0.999 --    49 C    0.977
   107   1 H    0.998 --    49 C    0.977
   108   1 H    0.999 --    50 C    0.984
   109   1 H    0.998 --    50 C    0.981
   110   1 H    0.999 --    50 C    0.987
   111   1 H    0.855 --    51 O    0.836
   112   1 H    0.856 --    52 O    0.838
   113   1 H    0.996 --    53 C    0.938
   114   1 H    0.998 --    54 C    0.954
   115   1 H    0.998 --    55 C    0.959
   116   1 H    0.996 --    56 C    0.957
   117   1 H    0.998 --    57 C    0.955
   118   1 H    0.996 --    59 C    0.962
   119   1 H    0.995 --    59 C    0.967
   120   1 H    0.859 --    60 O    0.831
   121   1 H    0.859 --    61 O    0.841
   122   1 H    0.888 --    62 O    0.844
   123   1 H    0.871 --    63 O    0.829
   124   1 H    0.988 --    64 C    0.937
   125   1 H    0.988 --    64 C    0.953
   126   1 H    0.991 --    64 C    0.971
 ---------------------------------------------------------------------------

Topologies differ in total number of bonds
Writing topology from bond orders to xtbtopo.mol

molecular dipole:
                 x           y           z       tot (Debye)
 q only:        0.790      -1.392       1.794
   full:        0.703      -1.136       2.076       6.275
molecular quadrupole (traceless):
                xx          xy          yy          xz          yz          zz
 q only:       42.285      15.378     -21.770      18.968     -11.137     -20.516
  q+dip:       37.253      18.061     -17.422      26.066     -17.127     -19.831
   full:       37.292      17.812     -20.067      23.335     -16.116     -17.226


           -------------------------------------------------
          | TOTAL ENERGY             -209.133374325071 Eh   |
          | GRADIENT NORM               0.118409360684 Eh/α |
          | HOMO-LUMO GAP               1.870604323586 eV   |
           -------------------------------------------------

------------------------------------------------------------------------
 * finished run on 2026/06/19 at 18:52:16.962     
------------------------------------------------------------------------
 total:
 * wall-time:     0 d,  0 h,  0 min,  0.264 sec
 *  cpu-time:     0 d,  0 h,  0 min,  4.002 sec
 * ratio c/w:    15.132 speedup
 SCF:
 * wall-time:     0 d,  0 h,  0 min,  0.205 sec
 *  cpu-time:     0 d,  0 h,  0 min,  3.243 sec
 * ratio c/w:    15.850 speedup

normal termination of xtb
