      -----------------------------------------------------------      
     |                   =====================                   |     
     |                           x T B                           |     
     |                   =====================                   |     
     |                         S. Grimme                         |     
     |          Mulliken Center for Theoretical Chemistry        |     
     |                    University of Bonn                     |     
      -----------------------------------------------------------      

   * xtb version 6.7.1 (edcfbbe) compiled by 'albert@albert-system' on 2024-07-22

   xtb is free software: you can redistribute it and/or modify it under
   the terms of the GNU Lesser General Public License as published by
   the Free Software Foundation, either version 3 of the License, or
   (at your option) any later version.
   
   xtb is distributed in the hope that it will be useful,
   but WITHOUT ANY WARRANTY; without even the implied warranty of
   MERCHANTABILITY or FITNESS FOR A PARTICULAR PURPOSE.  See the
   GNU Lesser General Public License for more details.
   
   Cite this work as:
   * C. Bannwarth, E. Caldeweyher, S. Ehlert, A. Hansen, P. Pracht,
     J. Seibert, S. Spicher, S. Grimme, WIREs Comput. Mol. Sci., 2020, 11,
     e01493. DOI: 10.1002/wcms.1493
   
   for GFN2-xTB:
   * C. Bannwarth, S. Ehlert and S. Grimme., J. Chem. Theory Comput., 2019,
     15, 1652-1671. DOI: 10.1021/acs.jctc.8b01176
   for GFN1-xTB:
   * S. Grimme, C. Bannwarth, P. Shushkov, J. Chem. Theory Comput., 2017,
     13, 1989-2009. DOI: 10.1021/acs.jctc.7b00118
   for GFN0-xTB:
   * P. Pracht, E. Caldeweyher, S. Ehlert, S. Grimme, ChemRxiv, 2019, preprint.
     DOI: 10.26434/chemrxiv.8326202.v1
   for GFN-FF:
   * S. Spicher and S. Grimme, Angew. Chem. Int. Ed., 2020, 59, 15665-15673.
     DOI: 10.1002/anie.202004239
   
   for ALPB and GBSA implicit solvation:
   * S. Ehlert, M. Stahn, S. Spicher, S. Grimme, J. Chem. Theory Comput.,
     2021, 17, 4250-4261. DOI: 10.1021/acs.jctc.1c00471
   
   for ddCOSMO and CPCM-X implicit solvation:
   * M. Stahn, S. Ehlert, S. Grimme, J. Phys. Chem. A,
     2023, XX, XXXX-XXXX. DOI: 10.1021/acs.jpca.3c04382
   
   for DFT-D4:
   * E. Caldeweyher, C. Bannwarth and S. Grimme, J. Chem. Phys., 2017,
     147, 034112. DOI: 10.1063/1.4993215
   * E. Caldeweyher, S. Ehlert, A. Hansen, H. Neugebauer, S. Spicher,
     C. Bannwarth and S. Grimme, J. Chem. Phys., 2019, 150, 154122.
     DOI: 10.1063/1.5090222
   * E. Caldeweyher, J.-M. Mewes, S. Ehlert and S. Grimme, Phys. Chem. Chem. Phys.
     2020, 22, 8499-8512. DOI: 10.1039/D0CP00502A
   
   for sTDA-xTB:
   * S. Grimme and C. Bannwarth, J. Chem. Phys., 2016, 145, 054103.
     DOI: 10.1063/1.4959605
   
   in the mass-spec context:
   * V. Asgeirsson, C. Bauer and S. Grimme, Chem. Sci., 2017, 8, 4879.
     DOI: 10.1039/c7sc00601b
   * J. Koopman and S. Grimme, ACS Omega 2019, 4, 12, 15120-15133.
     DOI: 10.1021/acsomega.9b02011
   
   for metadynamics refer to:
   * S. Grimme, J. Chem. Theory Comput., 2019, 155, 2847-2862
     DOI: 10.1021/acs.jctc.9b00143
   
   for SPH calculations refer to:
   * S. Spicher and S. Grimme, J. Chem. Theory Comput., 2021, 17, 1701-1714
     DOI: 10.1021/acs.jctc.0c01306
   
   for ONIOM refer to:
   * C. Plett, A. Katbashev, S. Ehlert, S. Grimme, M. Bursch,
     Phys. Chem. Chem. Phys., 2023, 25, 17860-17868. DOI: 10.1039/D3CP02178E
   
   for DIPRO refer to:
   * J. Kohn, N. Gildemeister, S. Grimme, D. Fazzi, A. Hansen,
     J. Chem. Phys., 2023, just accepted.
   
   for PTB refer to:
   * S. Grimme, M. Mueller, A. Hansen, J. Chem. Phys., 2023, 158, 124111.
     DOI: 10.1063/5.0137838
   
   with help from (in alphabetical order)
   P. Atkinson, C. Bannwarth, F. Bohle, G. Brandenburg, E. Caldeweyher
   M. Checinski, S. Dohm, S. Ehlert, S. Ehrlich, I. Gerasimov, C. Hölzer
   A. Katbashev, J. Kohn, J. Koopman, C. Lavigne, S. Lehtola, F. März, M. Müller,
   F. Musil, H. Neugebauer, J. Pisarek, C. Plett, P. Pracht, F. Pultar,
   J. Seibert, P. Shushkov, S. Spicher, M. Stahn, M. Steiner, T. Strunk,
   J. Stückrath, T. Rose, and J. Unsleber
   
 * started run on 2026/06/19 at 18:52:17.234     
   ID    Z sym.   atoms
    1    6 C      1-11, 13, 18, 20, 22-25, 29, 31, 33, 34, 36-41, 43-50,
                  53-57, 59, 64
    2    8 O      12, 14-17, 19, 21, 26-28, 30, 32, 35, 42, 51, 52, 58, 60-63
    3    1 H      65-126

           -------------------------------------------------
          |                Calculation Setup                |
           -------------------------------------------------

          program call               : xtb PAPU-0072/conf02.xyz --gfn 2 --alpb water --chrg 0 --uhf 0 --namespace PAPU-0072/conf02_water
          hostname                   : cpu10
          calculation namespace      : PAPU-0072/conf02_water
          coordinate file            : PAPU-0072/conf02.xyz
          omp threads                :                    16


           -------------------------------------------------
          |                 G F N 2 - x T B                 |
           -------------------------------------------------

        Reference                      10.1021/acs.jctc.8b01176
      * Hamiltonian:
        H0-scaling (s, p, d)           1.850000    2.230000    2.230000
        zeta-weighting                 0.500000
      * Dispersion:
        s8                             2.700000
        a1                             0.520000
        a2                             5.000000
        s9                             5.000000
      * Repulsion:
        kExp                           1.500000    1.000000
        rExp                           1.000000
      * Coulomb:
        alpha                          2.000000
        third order                    shell-resolved
        anisotropic                    true
        a3                             3.000000
        a5                             4.000000
        cn-shift                       1.200000
        cn-exp                         4.000000
        max-rad                        5.000000

      * Solvation model:               ALPB
        Solvent                        water
        Parameter file                 internal GFN2-xTB/ALPB
        Dielectric constant                8.0200E+01
        Reference state                gsolv [1 M gas/solution]
        Free energy shift                  1.0808E-03 Eh       6.7819E-01 kcal/mol
        Temperature                        2.9815E+02 K
        Density                            1.0000E+00 kg/L
        Solvent mass                       1.8000E+01 g/mol
        Interaction kernel             P16
        Born radius scaling (c1)           1.4744E+00
        Born radii integrator          GBOBC
        Born offset                        0.0000E+00 a0       0.0000E+00 AA
        H-bond correction              true
        Ion screening                  false
        Surface tension                    1.0000E-05 Eh       1.5569E+01 dyn/cm
        Grid points                               230 per atom

          ...................................................
          :                      SETUP                      :
          :.................................................:
          :  # basis functions                 318          :
          :  # atomic orbitals                 318          :
          :  # shells                          190          :
          :  # electrons                       360          :
          :  max. iterations                   250          :
          :  Hamiltonian                  GFN2-xTB          :
          :  restarted?                      false          :
          :  GBSA solvation                   true          :
          :  PC potential                    false          :
          :  electronic temp.          300.0000000     K    :
          :  accuracy                    1.0000000          :
          :  -> integral cutoff          0.2500000E+02      :
          :  -> integral neglect         0.1000000E-07      :
          :  -> SCF convergence          0.1000000E-05 Eh   :
          :  -> wf. convergence          0.1000000E-03 e    :
          :  Broyden damping             0.4000000          :
          :  net charge                          0          :
          :  unpaired electrons                  0          :
          ...................................................

 iter      E             dE          RMSdq      gap      omega  full diag
   1   -210.9304560 -0.210930E+03  0.449E+00    2.53       0.0  T
   2   -211.1669547 -0.236499E+00  0.243E+00    1.99       1.0  T
   3   -211.1521047  0.148500E-01  0.108E+00    2.04       1.0  T
   4   -211.1869445 -0.348398E-01  0.356E-01    1.81       1.0  T
   5   -211.1938217 -0.687720E-02  0.144E-01    1.82       1.0  T
   6   -211.1945697 -0.747964E-03  0.716E-02    1.83       1.0  T
   7   -211.1946923 -0.122656E-03  0.318E-02    1.84       1.0  T
   8   -211.1947266 -0.342482E-04  0.137E-02    1.84       1.0  T
   9   -211.1947318 -0.525961E-05  0.648E-03    1.85       1.4  T
  10   -211.1947329 -0.101505E-05  0.392E-03    1.84       2.3  T
  11   -211.1947335 -0.673068E-06  0.199E-03    1.84       4.5  T
  12   -211.1947337 -0.130098E-06  0.715E-04    1.84      12.5  T
  13   -211.1947337 -0.174900E-07  0.349E-04    1.84      25.6  T

   *** convergence criteria satisfied after 13 iterations ***

         #    Occupation            Energy/Eh            Energy/eV
      -------------------------------------------------------------
         1        2.0000           -0.7678227             -20.8935
       ...           ...                  ...                  ...
       174        2.0000           -0.4124750             -11.2240
       175        2.0000           -0.4112533             -11.1908
       176        2.0000           -0.4062734             -11.0553
       177        2.0000           -0.4053387             -11.0298
       178        2.0000           -0.4013879             -10.9223
       179        2.0000           -0.3848292             -10.4717
       180        2.0000           -0.3785397             -10.3006 (HOMO)
       181                         -0.3107836              -8.4569 (LUMO)
       182                         -0.2545206              -6.9259
       183                         -0.2456136              -6.6835
       184                         -0.2330569              -6.3418
       185                         -0.2302004              -6.2641
       ...                                ...                  ...
       318                          0.6746534              18.3583
      -------------------------------------------------------------
                  HL-Gap            0.0677561 Eh            1.8437 eV
             Fermi-level           -0.3446616 Eh           -9.3787 eV

 SCC (total)                   0 d,  0 h,  0 min,  0.203 sec
 SCC setup                      ...        0 min,  0.003 sec (  1.449%)
 Dispersion                     ...        0 min,  0.004 sec (  1.789%)
 classical contributions        ...        0 min,  0.000 sec (  0.090%)
 integral evaluation            ...        0 min,  0.008 sec (  4.119%)
 iterations                     ...        0 min,  0.158 sec ( 78.124%)
 molecular gradient             ...        0 min,  0.027 sec ( 13.529%)
 printout                       ...        0 min,  0.002 sec (  0.880%)

         :::::::::::::::::::::::::::::::::::::::::::::::::::::
         ::                     SUMMARY                     ::
         :::::::::::::::::::::::::::::::::::::::::::::::::::::
         :: total energy            -209.131981214024 Eh    ::
         :: total w/o Gsasa/hb      -209.097884017083 Eh    ::
         :: gradient norm              0.118319063967 Eh/a0 ::
         :: HOMO-LUMO gap              1.843737329600 eV    ::
         ::.................................................::
         :: SCC energy              -211.184232590680 Eh    ::
         :: -> isotropic ES            0.544332182864 Eh    ::
         :: -> anisotropic ES         -0.022796066059 Eh    ::
         :: -> anisotropic XC          0.006695755007 Eh    ::
         :: -> dispersion             -0.160014071659 Eh    ::
         :: -> Gsolv                  -0.085121448828 Eh    ::
         ::    -> Gelec               -0.051024251887 Eh    ::
         ::    -> Gsasa                0.008986407974 Eh    ::
         ::    -> Ghb                 -0.044164364613 Eh    ::
         ::    -> Gshift               0.001080759698 Eh    ::
         :: repulsion energy           2.052251376657 Eh    ::
         :: add. restraining           0.000000000000 Eh    ::
         :: total charge               0.000000000000 e     ::
         :::::::::::::::::::::::::::::::::::::::::::::::::::::

           -------------------------------------------------
          |                Property Printout                |
           -------------------------------------------------

    * Orbital Energies and Occupations

         #    Occupation            Energy/Eh            Energy/eV
      -------------------------------------------------------------
         1        2.0000           -0.7678227             -20.8935
       ...           ...                  ...                  ...
       168        2.0000           -0.4213348             -11.4651
       169        2.0000           -0.4190934             -11.4041
       170        2.0000           -0.4179519             -11.3730
       171        2.0000           -0.4164961             -11.3334
       172        2.0000           -0.4149243             -11.2907
       173        2.0000           -0.4138038             -11.2602
       174        2.0000           -0.4124750             -11.2240
       175        2.0000           -0.4112533             -11.1908
       176        2.0000           -0.4062734             -11.0553
       177        2.0000           -0.4053387             -11.0298
       178        2.0000           -0.4013879             -10.9223
       179        2.0000           -0.3848292             -10.4717
       180        2.0000           -0.3785397             -10.3006 (HOMO)
       181                         -0.3107836              -8.4569 (LUMO)
       182                         -0.2545206              -6.9259
       183                         -0.2456136              -6.6835
       184                         -0.2330569              -6.3418
       185                         -0.2302004              -6.2641
       186                         -0.2254963              -6.1361
       187                         -0.1612589              -4.3881
       188                         -0.1553861              -4.2283
       189                         -0.1095225              -2.9803
       190                         -0.0893351              -2.4309
       191                         -0.0751893              -2.0460
       ...                                ...                  ...
       318                          0.6746534              18.3583
      -------------------------------------------------------------
                  HL-Gap            0.0677561 Eh            1.8437 eV
             Fermi-level           -0.3446616 Eh           -9.3787 eV

     #   Z          covCN         q      C6AA      α(0)
     1   6 C        2.842     0.141    24.924     8.182
     2   6 C        2.975    -0.033    28.824     8.806
     3   6 C        2.964    -0.003    28.087     8.693
     4   6 C        2.928    -0.075    29.876     8.964
     5   6 C        2.838     0.147    24.799     8.161
     6   6 C        2.919    -0.113    30.852     9.109
     7   6 C        3.740     0.107    18.897     6.203
     8   6 C        3.722     0.096    19.106     6.242
     9   6 C        3.749     0.111    18.825     6.188
    10   6 C        3.752     0.099    19.001     6.216
    11   6 C        3.737     0.090    19.166     6.247
    12   8 O        1.695    -0.344    19.775     6.004
    13   6 C        3.681     0.075    19.521     6.327
    14   8 O        1.651    -0.492    22.718     6.434
    15   8 O        1.651    -0.497    22.836     6.451
    16   8 O        1.699    -0.323    19.398     5.946
    17   8 O        1.702    -0.303    19.041     5.891
    18   6 C        3.676     0.075    19.541     6.333
    19   8 O        1.654    -0.484    22.549     6.410
    20   6 C        3.643     0.252    17.014     5.930
    21   8 O        1.697    -0.355    19.989     6.036
    22   6 C        3.746     0.112    18.807     6.186
    23   6 C        3.722     0.094    19.128     6.246
    24   6 C        3.721     0.095    19.114     6.244
    25   6 C        3.731     0.091    19.160     6.248
    26   8 O        1.653    -0.481    22.481     6.401
    27   8 O        1.697    -0.334    19.596     5.977
    28   8 O        1.653    -0.494    22.772     6.442
    29   6 C        3.740     0.070    19.486     6.298
    30   8 O        1.704    -0.270    18.480     5.804
    31   6 C        2.751     0.364    20.826     7.473
    32   8 O        0.857    -0.456    22.838     6.407
    33   6 C        2.721     0.354    20.983     7.499
    34   6 C        2.896    -0.080    29.986     8.978
    35   8 O        0.857    -0.468    23.084     6.442
    36   6 C        2.903     0.004    27.935     8.666
    37   6 C        2.897    -0.037    28.909     8.816
    38   6 C        2.895    -0.016    28.419     8.740
    39   6 C        3.805    -0.080    22.032     6.682
    40   6 C        3.726     0.127    18.608     6.159
    41   6 C        2.894    -0.055    29.367     8.885
    42   8 O        1.652    -0.515    23.216     6.504
    43   6 C        2.898    -0.047    29.158     8.854
    44   6 C        2.897    -0.048    29.180     8.857
    45   6 C        2.897    -0.038    28.943     8.821
    46   6 C        3.805    -0.063    21.706     6.633
    47   6 C        3.802    -0.052    21.508     6.603
    48   6 C        3.800    -0.062    21.690     6.631
    49   6 C        3.798    -0.054    21.548     6.609
    50   6 C        3.750    -0.110    22.668     6.790
    51   8 O        1.657    -0.452    21.890     6.316
    52   8 O        1.657    -0.452    21.893     6.316
    53   6 C        3.632     0.233    17.324     5.992
    54   6 C        3.724     0.090    19.189     6.255
    55   6 C        3.724     0.099    19.056     6.233
    56   6 C        3.722     0.093    19.146     6.249
    57   6 C        3.740     0.098    19.032     6.225
    58   8 O        1.695    -0.359    20.056     6.046
    59   6 C        3.674     0.070    19.625     6.348
    60   8 O        1.653    -0.493    22.733     6.436
    61   8 O        1.654    -0.495    22.786     6.444
    62   8 O        1.652    -0.479    22.447     6.396
    63   8 O        1.654    -0.499    22.879     6.457
    64   6 C        3.754    -0.160    23.665     6.937
    65   1 H        0.926     0.067     2.115     2.274
    66   1 H        0.926     0.070     2.082     2.257
    67   1 H        0.924     0.039     2.460     2.453
    68   1 H        0.923     0.063     2.166     2.302
    69   1 H        0.923     0.029     2.601     2.522
    70   1 H        0.923     0.094     1.839     2.121
    71   1 H        0.923     0.049     2.328     2.386
    72   1 H        0.924     0.059     2.210     2.325
    73   1 H        0.924     0.028     2.612     2.528
    74   1 H        0.802     0.329     0.641     1.258
    75   1 H        0.802     0.340     0.612     1.229
    76   1 H        0.924     0.063     2.169     2.303
    77   1 H        0.924     0.053     2.284     2.363
    78   1 H        0.803     0.352     0.583     1.200
    79   1 H        0.924     0.007     2.932     2.678
    80   1 H        0.923     0.034     2.525     2.485
    81   1 H        0.923     0.049     2.334     2.389
    82   1 H        0.923     0.048     2.346     2.396
    83   1 H        0.924     0.068     2.106     2.270
    84   1 H        0.803     0.347     0.596     1.213
    85   1 H        0.803     0.378     0.528     1.141
    86   1 H        0.924     0.080     1.976     2.198
    87   1 H        0.924     0.102     1.764     2.077
    88   1 H        0.926     0.088     1.900     2.156
    89   1 H        0.926     0.075     2.034     2.230
    90   1 H        0.926     0.068     2.112     2.272
    91   1 H        0.926     0.063     2.159     2.298
    92   1 H        0.924     0.070     2.089     2.260
    93   1 H        0.924     0.072     2.066     2.248
    94   1 H        0.923     0.018     2.758     2.597
    95   1 H        0.926     0.059     2.208     2.324
    96   1 H        0.804     0.360     0.566     1.182
    97   1 H        0.926     0.043     2.403     2.424
    98   1 H        0.926     0.050     2.314     2.379
    99   1 H        0.926     0.005     2.973     2.696
   100   1 H        0.924     0.043     2.411     2.428
   101   1 H        0.924     0.040     2.449     2.447
   102   1 H        0.924     0.032     2.555     2.500
   103   1 H        0.924     0.027     2.629     2.536
   104   1 H        0.924     0.028     2.614     2.529
   105   1 H        0.924     0.040     2.455     2.450
   106   1 H        0.924     0.029     2.606     2.525
   107   1 H        0.923     0.031     2.578     2.511
   108   1 H        0.924     0.037     2.487     2.466
   109   1 H        0.924     0.039     2.460     2.453
   110   1 H        0.924     0.033     2.545     2.495
   111   1 H        0.804     0.381     0.521     1.134
   112   1 H        0.804     0.381     0.521     1.134
   113   1 H        0.924     0.055     2.258     2.350
   114   1 H        0.923     0.041     2.442     2.444
   115   1 H        0.923     0.039     2.457     2.451
   116   1 H        0.923     0.058     2.224     2.332
   117   1 H        0.923     0.044     2.394     2.420
   118   1 H        0.924     0.057     2.231     2.336
   119   1 H        0.924     0.071     2.073     2.252
   120   1 H        0.803     0.375     0.533     1.147
   121   1 H        0.804     0.376     0.532     1.145
   122   1 H        0.802     0.334     0.627     1.244
   123   1 H        0.803     0.359     0.567     1.183
   124   1 H        0.925     0.108     1.714     2.047
   125   1 H        0.925     0.107     1.725     2.054
   126   1 H        0.925     0.094     1.836     2.119

 Mol. C6AA /au·bohr⁶  :     148177.433069
 Mol. C8AA /au·bohr⁸  :    3326301.580578
 Mol. α(0) /au        :        572.880261


Wiberg/Mayer (AO) data.
largest (>0.10) Wiberg bond orders for each atom

 ---------------------------------------------------------------------------
     #   Z sym  total        # sym  WBO       # sym  WBO       # sym  WBO
 ---------------------------------------------------------------------------
     1   6 C    3.944 --     6 C    1.389     2 C    1.335    51 O    1.074
     2   6 C    3.976 --     3 C    1.391     1 C    1.335     7 C    0.992
     3   6 C    3.987 --     4 C    1.428     2 C    1.391    13 C    1.002
     4   6 C    3.984 --     3 C    1.428     5 C    1.361    65 H    0.964
     5   6 C    3.944 --     6 C    1.377     4 C    1.361    52 O    1.078
     6   6 C    3.975 --     1 C    1.389     5 C    1.377    66 H    0.959
     7   6 C    3.943 --     2 C    0.992    12 O    0.953     8 C    0.951
                            67 H    0.951
     8   6 C    3.951 --    15 O    0.987     9 C    0.968    68 H    0.954
                             7 C    0.951
     9   6 C    3.931 --     8 C    0.968    10 C    0.968    69 H    0.955
                            17 O    0.936
    10   6 C    3.930 --     9 C    0.968    11 C    0.959    16 O    0.954
                            70 H    0.950
    11   6 C    3.946 --    18 C    0.984    12 O    0.968    10 C    0.959
                            71 H    0.949
    12   8 O    2.058 --    11 C    0.968     7 C    0.953
    13   6 C    3.957 --     3 C    1.002    14 O    0.988    72 H    0.968
                            73 H    0.955
    14   8 O    1.930 --    13 C    0.988    74 H    0.847
    15   8 O    1.938 --     8 C    0.987    75 H    0.825
    16   8 O    2.106 --    20 C    0.980    10 C    0.954
    17   8 O    2.245 --    33 C    1.067     9 C    0.936    35 O    0.137
    18   6 C    3.959 --    19 O    1.010    11 C    0.984    76 H    0.967
                            77 H    0.965
    19   8 O    1.924 --    18 C    1.010    78 H    0.855
    20   6 C    3.927 --    16 O    0.980    21 O    0.960    25 C    0.954
                            79 H    0.942
    21   8 O    2.063 --    20 C    0.960    22 C    0.950
    22   6 C    3.940 --    29 C    0.984    23 C    0.969    80 H    0.950
                            21 O    0.950
    23   6 C    3.967 --    28 O    1.008    22 C    0.969    24 C    0.965
                            81 H    0.957
    24   6 C    3.962 --    26 O    1.003    23 C    0.965    25 C    0.963
                            82 H    0.952
    25   6 C    3.941 --    24 C    0.963    27 O    0.958    83 H    0.956
                            20 C    0.954
    26   8 O    1.935 --    24 C    1.003    84 H    0.827
    27   8 O    2.101 --    53 C    0.983    25 C    0.958
    28   8 O    1.914 --    23 C    1.008    85 H    0.833
    29   6 C    3.926 --    22 C    0.984    87 H    0.962    86 H    0.961
                            30 O    0.959
    30   8 O    2.291 --    31 C    1.106    29 C    0.959    32 O    0.157
    31   6 C    3.899 --    32 O    1.717    30 O    1.106    64 C    1.017
    32   8 O    2.001 --    31 C    1.717    30 O    0.157
    33   6 C    3.899 --    35 O    1.640    34 C    1.088    17 O    1.067
    34   6 C    3.968 --    36 C    1.706    33 C    1.088    88 H    0.957
                            38 C    0.111
    35   8 O    1.992 --    33 C    1.640    17 O    0.137
    36   6 C    3.972 --    34 C    1.706    37 C    1.163    89 H    0.956
    37   6 C    3.987 --    38 C    1.771    36 C    1.163    90 H    0.959
    38   6 C    3.959 --    37 C    1.771    39 C    1.044    91 H    0.959
                            34 C    0.111
    39   6 C    3.984 --    38 C    1.044    93 H    0.966    92 H    0.963
                            40 C    0.934
    40   6 C    3.944 --    41 C    1.012    42 O    0.983    94 H    0.953
                            39 C    0.934
    41   6 C    3.977 --    43 C    1.841    40 C    1.012    95 H    0.963
                            45 C    0.114
    42   8 O    1.908 --    40 C    0.983    96 H    0.855
    43   6 C    3.990 --    41 C    1.841    44 C    1.112    97 H    0.950
    44   6 C    3.988 --    45 C    1.832    43 C    1.112    98 H    0.960
    45   6 C    3.985 --    44 C    1.832    46 C    1.033    99 H    0.958
                            41 C    0.114
    46   6 C    3.995 --    45 C    1.033    47 C    0.986   101 H    0.973
                           100 H    0.955
    47   6 C    3.990 --    48 C    1.007    46 C    0.986   103 H    0.977
                           102 H    0.967
    48   6 C    3.995 --    47 C    1.007    49 C    1.006   104 H    0.977
                           105 H    0.974
    49   6 C    3.996 --    50 C    1.022    48 C    1.006   106 H    0.977
                           107 H    0.977
    50   6 C    3.995 --    49 C    1.022   110 H    0.987   108 H    0.984
                           109 H    0.981
    51   8 O    2.076 --     1 C    1.074   111 H    0.835
    52   8 O    2.074 --     5 C    1.078   112 H    0.836
    53   6 C    3.911 --    27 O    0.983    58 O    0.950    54 C    0.949
                           113 H    0.938
    54   6 C    3.960 --    62 O    1.000    55 C    0.969   114 H    0.954
                            53 C    0.949
    55   6 C    3.963 --    61 O    1.001    54 C    0.969    56 C    0.968
                           115 H    0.959
    56   6 C    3.961 --    60 O    0.999    57 C    0.968    55 C    0.968
                           116 H    0.957
    57   6 C    3.932 --    59 C    0.984    56 C    0.968   117 H    0.955
                            58 O    0.941
    58   8 O    2.072 --    53 C    0.950    57 C    0.941
    59   6 C    3.959 --    63 O    1.013    57 C    0.984   119 H    0.967
                           118 H    0.962
    60   8 O    1.937 --    56 C    0.999   120 H    0.831
    61   8 O    1.924 --    55 C    1.001   121 H    0.841
    62   8 O    1.936 --    54 C    1.000   122 H    0.845
    63   8 O    1.915 --    59 C    1.013   123 H    0.829
    64   6 C    3.979 --    31 C    1.017   126 H    0.971   125 H    0.953
                           124 H    0.937
    65   1 H    0.995 --     4 C    0.964
    66   1 H    0.994 --     6 C    0.959
    67   1 H    0.998 --     7 C    0.951
    68   1 H    0.996 --     8 C    0.954
    69   1 H    0.999 --     9 C    0.955
    70   1 H    0.991 --    10 C    0.950
    71   1 H    0.998 --    11 C    0.949
    72   1 H    0.996 --    13 C    0.968
    73   1 H    0.999 --    13 C    0.955
    74   1 H    0.892 --    14 O    0.847
    75   1 H    0.884 --    15 O    0.825
    76   1 H    0.995 --    18 C    0.967
    77   1 H    0.997 --    18 C    0.965
    78   1 H    0.876 --    19 O    0.855
    79   1 H    1.000 --    20 C    0.942
    80   1 H    0.999 --    22 C    0.950
    81   1 H    0.997 --    23 C    0.957
    82   1 H    0.998 --    24 C    0.952
    83   1 H    0.995 --    25 C    0.956
    84   1 H    0.879 --    26 O    0.827
    85   1 H    0.857 --    28 O    0.833
    86   1 H    0.993 --    29 C    0.961
    87   1 H    0.989 --    29 C    0.962
    88   1 H    0.992 --    34 C    0.957
    89   1 H    0.994 --    36 C    0.956
    90   1 H    0.995 --    37 C    0.959
    91   1 H    0.996 --    38 C    0.959
    92   1 H    0.992 --    39 C    0.963
    93   1 H    0.994 --    39 C    0.966
    94   1 H    0.999 --    40 C    0.953
    95   1 H    0.996 --    41 C    0.963
    96   1 H    0.870 --    42 O    0.855
    97   1 H    0.998 --    43 C    0.950
    98   1 H    0.997 --    44 C    0.960
    99   1 H    1.000 --    45 C    0.958
   100   1 H    0.994 --    46 C    0.955
   101   1 H    0.998 --    46 C    0.973
   102   1 H    0.999 --    47 C    0.967
   103   1 H    0.999 --    47 C    0.977
   104   1 H    0.999 --    48 C    0.977
   105   1 H    0.998 --    48 C    0.974
   106   1 H    0.999 --    49 C    0.977
   107   1 H    0.998 --    49 C    0.977
   108   1 H    0.999 --    50 C    0.984
   109   1 H    0.998 --    50 C    0.981
   110   1 H    0.999 --    50 C    0.987
   111   1 H    0.854 --    51 O    0.835
   112   1 H    0.854 --    52 O    0.836
   113   1 H    0.996 --    53 C    0.938
   114   1 H    0.998 --    54 C    0.954
   115   1 H    0.998 --    55 C    0.959
   116   1 H    0.996 --    56 C    0.957
   117   1 H    0.998 --    57 C    0.955
   118   1 H    0.996 --    59 C    0.962
   119   1 H    0.995 --    59 C    0.967
   120   1 H    0.859 --    60 O    0.831
   121   1 H    0.858 --    61 O    0.841
   122   1 H    0.888 --    62 O    0.845
   123   1 H    0.871 --    63 O    0.829
   124   1 H    0.988 --    64 C    0.937
   125   1 H    0.988 --    64 C    0.953
   126   1 H    0.991 --    64 C    0.971
 ---------------------------------------------------------------------------

Topologies differ in total number of bonds
Writing topology from bond orders to xtbtopo.mol

molecular dipole:
                 x           y           z       tot (Debye)
 q only:        1.332      -2.838       3.379
   full:        1.379      -2.923       4.043      13.156
molecular quadrupole (traceless):
                xx          xy          yy          xz          yz          zz
 q only:       17.028      20.302     -15.905      18.203     -20.964      -1.122
  q+dip:        5.941      24.030     -10.831      25.552     -29.156       4.889
   full:        5.876      23.704     -13.177      22.889     -28.207       7.301


           -------------------------------------------------
          | TOTAL ENERGY             -209.131981214024 Eh   |
          | GRADIENT NORM               0.118319063967 Eh/α |
          | HOMO-LUMO GAP               1.843737329600 eV   |
           -------------------------------------------------

------------------------------------------------------------------------
 * finished run on 2026/06/19 at 18:52:17.482     
------------------------------------------------------------------------
 total:
 * wall-time:     0 d,  0 h,  0 min,  0.248 sec
 *  cpu-time:     0 d,  0 h,  0 min,  3.760 sec
 * ratio c/w:    15.167 speedup
 SCF:
 * wall-time:     0 d,  0 h,  0 min,  0.203 sec
 *  cpu-time:     0 d,  0 h,  0 min,  3.214 sec
 * ratio c/w:    15.813 speedup

normal termination of xtb
