      -----------------------------------------------------------      
     |                   =====================                   |     
     |                           x T B                           |     
     |                   =====================                   |     
     |                         S. Grimme                         |     
     |          Mulliken Center for Theoretical Chemistry        |     
     |                    University of Bonn                     |     
      -----------------------------------------------------------      

   * xtb version 6.7.1 (edcfbbe) compiled by 'albert@albert-system' on 2024-07-22

   xtb is free software: you can redistribute it and/or modify it under
   the terms of the GNU Lesser General Public License as published by
   the Free Software Foundation, either version 3 of the License, or
   (at your option) any later version.
   
   xtb is distributed in the hope that it will be useful,
   but WITHOUT ANY WARRANTY; without even the implied warranty of
   MERCHANTABILITY or FITNESS FOR A PARTICULAR PURPOSE.  See the
   GNU Lesser General Public License for more details.
   
   Cite this work as:
   * C. Bannwarth, E. Caldeweyher, S. Ehlert, A. Hansen, P. Pracht,
     J. Seibert, S. Spicher, S. Grimme, WIREs Comput. Mol. Sci., 2020, 11,
     e01493. DOI: 10.1002/wcms.1493
   
   for GFN2-xTB:
   * C. Bannwarth, S. Ehlert and S. Grimme., J. Chem. Theory Comput., 2019,
     15, 1652-1671. DOI: 10.1021/acs.jctc.8b01176
   for GFN1-xTB:
   * S. Grimme, C. Bannwarth, P. Shushkov, J. Chem. Theory Comput., 2017,
     13, 1989-2009. DOI: 10.1021/acs.jctc.7b00118
   for GFN0-xTB:
   * P. Pracht, E. Caldeweyher, S. Ehlert, S. Grimme, ChemRxiv, 2019, preprint.
     DOI: 10.26434/chemrxiv.8326202.v1
   for GFN-FF:
   * S. Spicher and S. Grimme, Angew. Chem. Int. Ed., 2020, 59, 15665-15673.
     DOI: 10.1002/anie.202004239
   
   for ALPB and GBSA implicit solvation:
   * S. Ehlert, M. Stahn, S. Spicher, S. Grimme, J. Chem. Theory Comput.,
     2021, 17, 4250-4261. DOI: 10.1021/acs.jctc.1c00471
   
   for ddCOSMO and CPCM-X implicit solvation:
   * M. Stahn, S. Ehlert, S. Grimme, J. Phys. Chem. A,
     2023, XX, XXXX-XXXX. DOI: 10.1021/acs.jpca.3c04382
   
   for DFT-D4:
   * E. Caldeweyher, C. Bannwarth and S. Grimme, J. Chem. Phys., 2017,
     147, 034112. DOI: 10.1063/1.4993215
   * E. Caldeweyher, S. Ehlert, A. Hansen, H. Neugebauer, S. Spicher,
     C. Bannwarth and S. Grimme, J. Chem. Phys., 2019, 150, 154122.
     DOI: 10.1063/1.5090222
   * E. Caldeweyher, J.-M. Mewes, S. Ehlert and S. Grimme, Phys. Chem. Chem. Phys.
     2020, 22, 8499-8512. DOI: 10.1039/D0CP00502A
   
   for sTDA-xTB:
   * S. Grimme and C. Bannwarth, J. Chem. Phys., 2016, 145, 054103.
     DOI: 10.1063/1.4959605
   
   in the mass-spec context:
   * V. Asgeirsson, C. Bauer and S. Grimme, Chem. Sci., 2017, 8, 4879.
     DOI: 10.1039/c7sc00601b
   * J. Koopman and S. Grimme, ACS Omega 2019, 4, 12, 15120-15133.
     DOI: 10.1021/acsomega.9b02011
   
   for metadynamics refer to:
   * S. Grimme, J. Chem. Theory Comput., 2019, 155, 2847-2862
     DOI: 10.1021/acs.jctc.9b00143
   
   for SPH calculations refer to:
   * S. Spicher and S. Grimme, J. Chem. Theory Comput., 2021, 17, 1701-1714
     DOI: 10.1021/acs.jctc.0c01306
   
   for ONIOM refer to:
   * C. Plett, A. Katbashev, S. Ehlert, S. Grimme, M. Bursch,
     Phys. Chem. Chem. Phys., 2023, 25, 17860-17868. DOI: 10.1039/D3CP02178E
   
   for DIPRO refer to:
   * J. Kohn, N. Gildemeister, S. Grimme, D. Fazzi, A. Hansen,
     J. Chem. Phys., 2023, just accepted.
   
   for PTB refer to:
   * S. Grimme, M. Mueller, A. Hansen, J. Chem. Phys., 2023, 158, 124111.
     DOI: 10.1063/5.0137838
   
   with help from (in alphabetical order)
   P. Atkinson, C. Bannwarth, F. Bohle, G. Brandenburg, E. Caldeweyher
   M. Checinski, S. Dohm, S. Ehlert, S. Ehrlich, I. Gerasimov, C. Hölzer
   A. Katbashev, J. Kohn, J. Koopman, C. Lavigne, S. Lehtola, F. März, M. Müller,
   F. Musil, H. Neugebauer, J. Pisarek, C. Plett, P. Pracht, F. Pultar,
   J. Seibert, P. Shushkov, S. Spicher, M. Stahn, M. Steiner, T. Strunk,
   J. Stückrath, T. Rose, and J. Unsleber
   
 * started run on 2026/06/19 at 18:52:18.039     
   ID    Z sym.   atoms
    1    6 C      1-11, 13, 18, 20, 22-25, 29, 31, 33, 34, 36-41, 43-50,
                  53-57, 59, 64
    2    8 O      12, 14-17, 19, 21, 26-28, 30, 32, 35, 42, 51, 52, 58, 60-63
    3    1 H      65-126

           -------------------------------------------------
          |                Calculation Setup                |
           -------------------------------------------------

          program call               : xtb PAPU-0072/conf03.xyz --gfn 2 --alpb octanol --chrg 0 --uhf 0 --namespace PAPU-0072/conf03_octanol
          hostname                   : cpu10
          calculation namespace      : PAPU-0072/conf03_octanol
          coordinate file            : PAPU-0072/conf03.xyz
          omp threads                :                    16


           -------------------------------------------------
          |                 G F N 2 - x T B                 |
           -------------------------------------------------

        Reference                      10.1021/acs.jctc.8b01176
      * Hamiltonian:
        H0-scaling (s, p, d)           1.850000    2.230000    2.230000
        zeta-weighting                 0.500000
      * Dispersion:
        s8                             2.700000
        a1                             0.520000
        a2                             5.000000
        s9                             5.000000
      * Repulsion:
        kExp                           1.500000    1.000000
        rExp                           1.000000
      * Coulomb:
        alpha                          2.000000
        third order                    shell-resolved
        anisotropic                    true
        a3                             3.000000
        a5                             4.000000
        cn-shift                       1.200000
        cn-exp                         4.000000
        max-rad                        5.000000

      * Solvation model:               ALPB
        Solvent                        octanol
        Parameter file                 internal GFN2-xTB/ALPB
        Dielectric constant                9.8629E+00
        Reference state                gsolv [1 M gas/solution]
        Free energy shift                  2.3397E-03 Eh       1.4682E+00 kcal/mol
        Temperature                        2.9815E+02 K
        Density                            8.3000E-01 kg/L
        Solvent mass                       1.3023E+02 g/mol
        Interaction kernel             P16
        Born radius scaling (c1)           1.5898E+00
        Born radii integrator          GBOBC
        Born offset                        0.0000E+00 a0       0.0000E+00 AA
        H-bond correction              true
        Ion screening                  false
        Surface tension                    1.0000E-05 Eh       1.5569E+01 dyn/cm
        Grid points                               230 per atom

          ...................................................
          :                      SETUP                      :
          :.................................................:
          :  # basis functions                 318          :
          :  # atomic orbitals                 318          :
          :  # shells                          190          :
          :  # electrons                       360          :
          :  max. iterations                   250          :
          :  Hamiltonian                  GFN2-xTB          :
          :  restarted?                      false          :
          :  GBSA solvation                   true          :
          :  PC potential                    false          :
          :  electronic temp.          300.0000000     K    :
          :  accuracy                    1.0000000          :
          :  -> integral cutoff          0.2500000E+02      :
          :  -> integral neglect         0.1000000E-07      :
          :  -> SCF convergence          0.1000000E-05 Eh   :
          :  -> wf. convergence          0.1000000E-03 e    :
          :  Broyden damping             0.4000000          :
          :  net charge                          0          :
          :  unpaired electrons                  0          :
          ...................................................

 iter      E             dE          RMSdq      gap      omega  full diag
   1   -210.9401444 -0.210940E+03  0.445E+00    2.57       0.0  T
   2   -211.1814547 -0.241310E+00  0.243E+00    1.95       1.0  T
   3   -211.1691103  0.123445E-01  0.110E+00    1.97       1.0  T
   4   -211.2034817 -0.343714E-01  0.330E-01    1.73       1.0  T
   5   -211.2095619 -0.608027E-02  0.140E-01    1.73       1.0  T
   6   -211.2104117 -0.849793E-03  0.645E-02    1.75       1.0  T
   7   -211.2105170 -0.105310E-03  0.277E-02    1.76       1.0  T
   8   -211.2105421 -0.250850E-04  0.118E-02    1.76       1.0  T
   9   -211.2105465 -0.433186E-05  0.575E-03    1.76       1.6  T
  10   -211.2105482 -0.171903E-05  0.247E-03    1.76       3.6  T
  11   -211.2105484 -0.206128E-06  0.116E-03    1.76       7.7  T
  12   -211.2105484 -0.237121E-07  0.464E-04    1.76      19.2  T
  13   -211.2105484 -0.729992E-08  0.206E-04    1.76      43.2  T

   *** convergence criteria satisfied after 13 iterations ***

         #    Occupation            Energy/Eh            Energy/eV
      -------------------------------------------------------------
         1        2.0000           -0.7748223             -21.0840
       ...           ...                  ...                  ...
       174        2.0000           -0.4132582             -11.2453
       175        2.0000           -0.4119328             -11.2093
       176        2.0000           -0.4111569             -11.1881
       177        2.0000           -0.4091569             -11.1337
       178        2.0000           -0.4072418             -11.0816
       179        2.0000           -0.3934512             -10.7064
       180        2.0000           -0.3816200             -10.3844 (HOMO)
       181                         -0.3169744              -8.6253 (LUMO)
       182                         -0.2566892              -6.9849
       183                         -0.2490559              -6.7772
       184                         -0.2406182              -6.5476
       185                         -0.2363936              -6.4326
       ...                                ...                  ...
       318                          0.6687787              18.1984
      -------------------------------------------------------------
                  HL-Gap            0.0646456 Eh            1.7591 eV
             Fermi-level           -0.3492972 Eh           -9.5049 eV

 SCC (total)                   0 d,  0 h,  0 min,  0.200 sec
 SCC setup                      ...        0 min,  0.003 sec (  1.285%)
 Dispersion                     ...        0 min,  0.003 sec (  1.252%)
 classical contributions        ...        0 min,  0.000 sec (  0.091%)
 integral evaluation            ...        0 min,  0.009 sec (  4.506%)
 iterations                     ...        0 min,  0.157 sec ( 78.303%)
 molecular gradient             ...        0 min,  0.027 sec ( 13.664%)
 printout                       ...        0 min,  0.002 sec (  0.880%)

         :::::::::::::::::::::::::::::::::::::::::::::::::::::
         ::                     SUMMARY                     ::
         :::::::::::::::::::::::::::::::::::::::::::::::::::::
         :: total energy            -209.148676237936 Eh    ::
         :: total w/o Gsasa/hb      -209.079971448190 Eh    ::
         :: gradient norm              0.118588766834 Eh/a0 ::
         :: HOMO-LUMO gap              1.759097392896 eV    ::
         ::.................................................::
         :: SCC energy              -211.200041156520 Eh    ::
         :: -> isotropic ES            0.523719883892 Eh    ::
         :: -> anisotropic ES         -0.023027928975 Eh    ::
         :: -> anisotropic XC          0.005981704170 Eh    ::
         :: -> dispersion             -0.159982366604 Eh    ::
         :: -> Gsolv                  -0.094846614600 Eh    ::
         ::    -> Gelec               -0.026141824855 Eh    ::
         ::    -> Gsasa               -0.023973593405 Eh    ::
         ::    -> Ghb                 -0.047070865716 Eh    ::
         ::    -> Gshift               0.002339669376 Eh    ::
         :: repulsion energy           2.051364918584 Eh    ::
         :: add. restraining           0.000000000000 Eh    ::
         :: total charge              -0.000000000000 e     ::
         :::::::::::::::::::::::::::::::::::::::::::::::::::::

           -------------------------------------------------
          |                Property Printout                |
           -------------------------------------------------

    * Orbital Energies and Occupations

         #    Occupation            Energy/Eh            Energy/eV
      -------------------------------------------------------------
         1        2.0000           -0.7748223             -21.0840
       ...           ...                  ...                  ...
       168        2.0000           -0.4281656             -11.6510
       169        2.0000           -0.4254839             -11.5780
       170        2.0000           -0.4229110             -11.5080
       171        2.0000           -0.4212561             -11.4630
       172        2.0000           -0.4207214             -11.4484
       173        2.0000           -0.4203369             -11.4379
       174        2.0000           -0.4132582             -11.2453
       175        2.0000           -0.4119328             -11.2093
       176        2.0000           -0.4111569             -11.1881
       177        2.0000           -0.4091569             -11.1337
       178        2.0000           -0.4072418             -11.0816
       179        2.0000           -0.3934512             -10.7064
       180        2.0000           -0.3816200             -10.3844 (HOMO)
       181                         -0.3169744              -8.6253 (LUMO)
       182                         -0.2566892              -6.9849
       183                         -0.2490559              -6.7772
       184                         -0.2406182              -6.5476
       185                         -0.2363936              -6.4326
       186                         -0.2329957              -6.3401
       187                         -0.1678772              -4.5682
       188                         -0.1582692              -4.3067
       189                         -0.1171890              -3.1889
       190                         -0.1016323              -2.7656
       191                         -0.0859227              -2.3381
       ...                                ...                  ...
       318                          0.6687787              18.1984
      -------------------------------------------------------------
                  HL-Gap            0.0646456 Eh            1.7591 eV
             Fermi-level           -0.3492972 Eh           -9.5049 eV

     #   Z          covCN         q      C6AA      α(0)
     1   6 C        2.841     0.145    24.849     8.169
     2   6 C        2.975    -0.034    28.843     8.809
     3   6 C        2.964    -0.003    28.089     8.693
     4   6 C        2.927    -0.092    30.310     9.029
     5   6 C        2.837     0.152    24.696     8.144
     6   6 C        2.919    -0.103    30.585     9.069
     7   6 C        3.740     0.106    18.919     6.206
     8   6 C        3.722     0.091    19.178     6.254
     9   6 C        3.749     0.107    18.875     6.196
    10   6 C        3.751     0.096    19.049     6.224
    11   6 C        3.737     0.085    19.246     6.260
    12   8 O        1.695    -0.338    19.679     5.989
    13   6 C        3.682     0.073    19.567     6.335
    14   8 O        1.651    -0.483    22.541     6.409
    15   8 O        1.651    -0.498    22.857     6.454
    16   8 O        1.699    -0.325    19.439     5.953
    17   8 O        1.702    -0.306    19.096     5.900
    18   6 C        3.676     0.071    19.612     6.345
    19   8 O        1.654    -0.476    22.382     6.386
    20   6 C        3.643     0.251    17.028     5.933
    21   8 O        1.697    -0.348    19.860     6.017
    22   6 C        3.746     0.109    18.851     6.193
    23   6 C        3.722     0.090    19.200     6.258
    24   6 C        3.721     0.091    19.186     6.256
    25   6 C        3.731     0.087    19.231     6.260
    26   8 O        1.653    -0.483    22.522     6.406
    27   8 O        1.697    -0.329    19.509     5.963
    28   8 O        1.653    -0.482    22.499     6.403
    29   6 C        3.740     0.066    19.552     6.309
    30   8 O        1.704    -0.270    18.471     5.803
    31   6 C        2.751     0.365    20.807     7.469
    32   8 O        0.857    -0.439    22.480     6.357
    33   6 C        2.721     0.357    20.949     7.493
    34   6 C        2.896    -0.086    30.155     9.004
    35   8 O        0.857    -0.454    22.794     6.401
    36   6 C        2.903     0.002    27.980     8.673
    37   6 C        2.897    -0.039    28.978     8.826
    38   6 C        2.895    -0.019    28.489     8.751
    39   6 C        3.805    -0.084    22.103     6.693
    40   6 C        3.726     0.127    18.608     6.159
    41   6 C        2.894    -0.058    29.430     8.895
    42   8 O        1.652    -0.494    22.775     6.442
    43   6 C        2.898    -0.047    29.155     8.853
    44   6 C        2.897    -0.050    29.242     8.866
    45   6 C        2.896    -0.037    28.922     8.818
    46   6 C        3.805    -0.067    21.777     6.643
    47   6 C        3.802    -0.054    21.550     6.609
    48   6 C        3.800    -0.064    21.721     6.636
    49   6 C        3.798    -0.053    21.534     6.607
    50   6 C        3.750    -0.114    22.741     6.801
    51   8 O        1.656    -0.442    21.690     6.287
    52   8 O        1.657    -0.433    21.508     6.261
    53   6 C        3.632     0.230    17.369     6.000
    54   6 C        3.724     0.085    19.269     6.268
    55   6 C        3.724     0.093    19.137     6.247
    56   6 C        3.722     0.087    19.242     6.265
    57   6 C        3.740     0.093    19.114     6.238
    58   8 O        1.695    -0.354    19.971     6.033
    59   6 C        3.674     0.066    19.689     6.358
    60   8 O        1.653    -0.483    22.525     6.407
    61   8 O        1.654    -0.480    22.476     6.400
    62   8 O        1.652    -0.478    22.418     6.392
    63   8 O        1.654    -0.484    22.549     6.410
    64   6 C        3.754    -0.172    23.910     6.973
    65   1 H        0.926     0.067     2.116     2.275
    66   1 H        0.926     0.075     2.030     2.228
    67   1 H        0.924     0.038     2.481     2.463
    68   1 H        0.923     0.063     2.165     2.301
    69   1 H        0.923     0.028     2.615     2.529
    70   1 H        0.923     0.090     1.875     2.142
    71   1 H        0.923     0.053     2.283     2.363
    72   1 H        0.924     0.064     2.155     2.296
    73   1 H        0.924     0.028     2.619     2.531
    74   1 H        0.802     0.324     0.654     1.271
    75   1 H        0.802     0.343     0.605     1.222
    76   1 H        0.924     0.064     2.153     2.295
    77   1 H        0.924     0.055     2.259     2.351
    78   1 H        0.803     0.349     0.591     1.208
    79   1 H        0.924     0.008     2.920     2.672
    80   1 H        0.923     0.037     2.489     2.467
    81   1 H        0.923     0.051     2.305     2.374
    82   1 H        0.923     0.050     2.315     2.379
    83   1 H        0.924     0.062     2.175     2.306
    84   1 H        0.803     0.354     0.580     1.197
    85   1 H        0.803     0.367     0.550     1.165
    86   1 H        0.924     0.081     1.973     2.196
    87   1 H        0.924     0.102     1.763     2.076
    88   1 H        0.926     0.098     1.806     2.101
    89   1 H        0.926     0.070     2.080     2.256
    90   1 H        0.926     0.075     2.033     2.229
    91   1 H        0.926     0.059     2.215     2.327
    92   1 H        0.924     0.065     2.147     2.291
    93   1 H        0.924     0.076     2.018     2.222
    94   1 H        0.923     0.012     2.862     2.645
    95   1 H        0.926     0.067     2.116     2.275
    96   1 H        0.804     0.341     0.609     1.226
    97   1 H        0.926     0.039     2.462     2.454
    98   1 H        0.926     0.056     2.244     2.343
    99   1 H        0.926     0.000     3.051     2.732
   100   1 H        0.924     0.048     2.340     2.392
   101   1 H        0.924     0.043     2.409     2.427
   102   1 H        0.924     0.037     2.493     2.469
   103   1 H        0.924     0.028     2.611     2.527
   104   1 H        0.924     0.029     2.603     2.523
   105   1 H        0.924     0.044     2.396     2.420
   106   1 H        0.924     0.029     2.605     2.524
   107   1 H        0.923     0.030     2.583     2.513
   108   1 H        0.924     0.037     2.495     2.470
   109   1 H        0.924     0.043     2.411     2.428
   110   1 H        0.924     0.032     2.553     2.499
   111   1 H        0.804     0.364     0.557     1.172
   112   1 H        0.804     0.361     0.562     1.178
   113   1 H        0.924     0.050     2.322     2.383
   114   1 H        0.923     0.039     2.467     2.456
   115   1 H        0.923     0.039     2.465     2.455
   116   1 H        0.923     0.060     2.204     2.322
   117   1 H        0.923     0.041     2.434     2.440
   118   1 H        0.924     0.057     2.235     2.338
   119   1 H        0.924     0.076     2.020     2.223
   120   1 H        0.803     0.367     0.549     1.164
   121   1 H        0.804     0.365     0.554     1.169
   122   1 H        0.802     0.337     0.619     1.236
   123   1 H        0.803     0.354     0.579     1.196
   124   1 H        0.925     0.111     1.690     2.033
   125   1 H        0.925     0.094     1.844     2.123
   126   1 H        0.925     0.106     1.731     2.058

 Mol. C6AA /au·bohr⁶  :     148066.551982
 Mol. C8AA /au·bohr⁸  :    3324697.961811
 Mol. α(0) /au        :        572.707968


Wiberg/Mayer (AO) data.
largest (>0.10) Wiberg bond orders for each atom

 ---------------------------------------------------------------------------
     #   Z sym  total        # sym  WBO       # sym  WBO       # sym  WBO
 ---------------------------------------------------------------------------
     1   6 C    3.942 --     6 C    1.395     2 C    1.333    51 O    1.071
     2   6 C    3.975 --     3 C    1.393     1 C    1.333     7 C    0.992
     3   6 C    3.986 --     4 C    1.424     2 C    1.393    13 C    1.002
     4   6 C    3.981 --     3 C    1.424     5 C    1.363    65 H    0.961
     5   6 C    3.944 --     6 C    1.374     4 C    1.363    52 O    1.079
     6   6 C    3.978 --     1 C    1.395     5 C    1.374    66 H    0.961
     7   6 C    3.944 --     2 C    0.992    12 O    0.954    67 H    0.951
                             8 C    0.951
     8   6 C    3.951 --    15 O    0.988     9 C    0.968    68 H    0.954
                             7 C    0.951
     9   6 C    3.934 --    10 C    0.968     8 C    0.968    69 H    0.955
                            17 O    0.939
    10   6 C    3.930 --     9 C    0.968    11 C    0.959    16 O    0.953
                            70 H    0.951
    11   6 C    3.946 --    18 C    0.983    12 O    0.970    10 C    0.959
                            71 H    0.948
    12   8 O    2.061 --    11 C    0.970     7 C    0.954
    13   6 C    3.958 --     3 C    1.002    14 O    0.989    72 H    0.968
                            73 H    0.955
    14   8 O    1.936 --    13 C    0.989    74 H    0.850
    15   8 O    1.936 --     8 C    0.988    75 H    0.822
    16   8 O    2.105 --    20 C    0.979    10 C    0.953
    17   8 O    2.241 --    33 C    1.061     9 C    0.939    35 O    0.137
    18   6 C    3.960 --    19 O    1.012    11 C    0.983    76 H    0.966
                            77 H    0.965
    19   8 O    1.929 --    18 C    1.012    78 H    0.857
    20   6 C    3.929 --    16 O    0.979    21 O    0.964    25 C    0.954
                            79 H    0.942
    21   8 O    2.067 --    20 C    0.964    22 C    0.950
    22   6 C    3.939 --    29 C    0.984    23 C    0.969    80 H    0.950
                            21 O    0.950
    23   6 C    3.967 --    28 O    1.009    22 C    0.969    24 C    0.965
                            81 H    0.957
    24   6 C    3.962 --    26 O    1.004    23 C    0.965    25 C    0.962
                            82 H    0.951
    25   6 C    3.941 --    24 C    0.962    27 O    0.958    83 H    0.957
                            20 C    0.954
    26   8 O    1.932 --    24 C    1.004    84 H    0.823
    27   8 O    2.103 --    53 C    0.985    25 C    0.958
    28   8 O    1.923 --    23 C    1.009    85 H    0.840
    29   6 C    3.929 --    22 C    0.984    30 O    0.962    87 H    0.962
                            86 H    0.960
    30   8 O    2.288 --    31 C    1.100    29 C    0.962    32 O    0.158
    31   6 C    3.902 --    32 O    1.729    30 O    1.100    64 C    1.015
    32   8 O    2.014 --    31 C    1.729    30 O    0.158
    33   6 C    3.899 --    35 O    1.649    34 C    1.086    17 O    1.061
    34   6 C    3.967 --    36 C    1.709    33 C    1.086    88 H    0.955
                            38 C    0.111
    35   8 O    2.003 --    33 C    1.649    17 O    0.137
    36   6 C    3.974 --    34 C    1.709    37 C    1.162    89 H    0.957
    37   6 C    3.986 --    38 C    1.772    36 C    1.162    90 H    0.958
    38   6 C    3.960 --    37 C    1.772    39 C    1.044    91 H    0.959
                            34 C    0.111
    39   6 C    3.984 --    38 C    1.044    93 H    0.966    92 H    0.964
                            40 C    0.934
    40   6 C    3.944 --    41 C    1.012    42 O    0.984    94 H    0.954
                            39 C    0.934
    41   6 C    3.975 --    43 C    1.840    40 C    1.012    95 H    0.962
                            45 C    0.115
    42   8 O    1.923 --    40 C    0.984    96 H    0.868
    43   6 C    3.990 --    41 C    1.840    44 C    1.113    97 H    0.951
    44   6 C    3.987 --    45 C    1.830    43 C    1.113    98 H    0.959
    45   6 C    3.984 --    44 C    1.830    46 C    1.034    99 H    0.958
                            41 C    0.115
    46   6 C    3.994 --    45 C    1.034    47 C    0.985   101 H    0.973
                           100 H    0.954
    47   6 C    3.989 --    48 C    1.006    46 C    0.985   103 H    0.977
                           102 H    0.967
    48   6 C    3.994 --    47 C    1.006    49 C    1.006   104 H    0.977
                           105 H    0.974
    49   6 C    3.996 --    50 C    1.021    48 C    1.006   106 H    0.977
                           107 H    0.977
    50   6 C    3.995 --    49 C    1.021   110 H    0.987   108 H    0.984
                           109 H    0.981
    51   8 O    2.083 --     1 C    1.071   111 H    0.847
    52   8 O    2.088 --     5 C    1.079   112 H    0.851
    53   6 C    3.915 --    27 O    0.985    58 O    0.951    54 C    0.949
                           113 H    0.939
    54   6 C    3.961 --    62 O    1.001    55 C    0.968   114 H    0.954
                            53 C    0.949
    55   6 C    3.964 --    61 O    1.002    54 C    0.968    56 C    0.968
                           115 H    0.959
    56   6 C    3.962 --    60 O    1.000    57 C    0.968    55 C    0.968
                           116 H    0.957
    57   6 C    3.932 --    59 C    0.982    56 C    0.968   117 H    0.955
                            58 O    0.942
    58   8 O    2.074 --    53 C    0.951    57 C    0.942
    59   6 C    3.960 --    63 O    1.017    57 C    0.982   119 H    0.966
                           118 H    0.962
    60   8 O    1.943 --    56 C    1.000   120 H    0.836
    61   8 O    1.934 --    55 C    1.002   121 H    0.848
    62   8 O    1.936 --    54 C    1.001   122 H    0.843
    63   8 O    1.924 --    59 C    1.017   123 H    0.834
    64   6 C    3.980 --    31 C    1.015   125 H    0.971   124 H    0.953
                           126 H    0.939
    65   1 H    0.995 --     4 C    0.961
    66   1 H    0.994 --     6 C    0.961
    67   1 H    0.998 --     7 C    0.951
    68   1 H    0.996 --     8 C    0.954
    69   1 H    0.999 --     9 C    0.955
    70   1 H    0.991 --    10 C    0.951
    71   1 H    0.997 --    11 C    0.948
    72   1 H    0.996 --    13 C    0.968
    73   1 H    0.999 --    13 C    0.955
    74   1 H    0.895 --    14 O    0.850
    75   1 H    0.882 --    15 O    0.822
    76   1 H    0.995 --    18 C    0.966
    77   1 H    0.996 --    18 C    0.965
    78   1 H    0.878 --    19 O    0.857
    79   1 H    1.000 --    20 C    0.942
    80   1 H    0.999 --    22 C    0.950
    81   1 H    0.997 --    23 C    0.957
    82   1 H    0.997 --    24 C    0.951
    83   1 H    0.996 --    25 C    0.957
    84   1 H    0.875 --    26 O    0.823
    85   1 H    0.865 --    28 O    0.840
    86   1 H    0.993 --    29 C    0.960
    87   1 H    0.989 --    29 C    0.962
    88   1 H    0.990 --    34 C    0.955
    89   1 H    0.995 --    36 C    0.957
    90   1 H    0.994 --    37 C    0.958
    91   1 H    0.997 --    38 C    0.959
    92   1 H    0.992 --    39 C    0.964
    93   1 H    0.993 --    39 C    0.966
    94   1 H    0.999 --    40 C    0.954
    95   1 H    0.995 --    41 C    0.962
    96   1 H    0.883 --    42 O    0.868
    97   1 H    0.998 --    43 C    0.951
    98   1 H    0.996 --    44 C    0.959
    99   1 H    1.000 --    45 C    0.958
   100   1 H    0.993 --    46 C    0.954
   101   1 H    0.998 --    46 C    0.973
   102   1 H    0.999 --    47 C    0.967
   103   1 H    0.999 --    47 C    0.977
   104   1 H    0.999 --    48 C    0.977
   105   1 H    0.998 --    48 C    0.974
   106   1 H    0.999 --    49 C    0.977
   107   1 H    0.998 --    49 C    0.977
   108   1 H    0.999 --    50 C    0.984
   109   1 H    0.998 --    50 C    0.981
   110   1 H    0.999 --    50 C    0.987
   111   1 H    0.867 --    51 O    0.847
   112   1 H    0.869 --    52 O    0.851
   113   1 H    0.997 --    53 C    0.939
   114   1 H    0.998 --    54 C    0.954
   115   1 H    0.998 --    55 C    0.959
   116   1 H    0.996 --    56 C    0.957
   117   1 H    0.998 --    57 C    0.955
   118   1 H    0.996 --    59 C    0.962
   119   1 H    0.994 --    59 C    0.966
   120   1 H    0.865 --    60 O    0.836
   121   1 H    0.866 --    61 O    0.848
   122   1 H    0.886 --    62 O    0.843
   123   1 H    0.875 --    63 O    0.834
   124   1 H    0.988 --    64 C    0.953
   125   1 H    0.991 --    64 C    0.971
   126   1 H    0.989 --    64 C    0.939
 ---------------------------------------------------------------------------

Topologies differ in total number of bonds
Writing topology from bond orders to xtbtopo.mol

molecular dipole:
                 x           y           z       tot (Debye)
 q only:        0.673      -1.589       2.349
   full:        0.660      -1.630       2.923       8.669
molecular quadrupole (traceless):
                xx          xy          yy          xz          yz          zz
 q only:       40.354       2.946     -27.977      35.008      -9.521     -12.376
  q+dip:       35.989       1.676     -27.309      47.617     -15.721      -8.680
   full:       35.980       1.315     -29.706      44.978     -14.737      -6.274


           -------------------------------------------------
          | TOTAL ENERGY             -209.148676237936 Eh   |
          | GRADIENT NORM               0.118588766834 Eh/α |
          | HOMO-LUMO GAP               1.759097392896 eV   |
           -------------------------------------------------

------------------------------------------------------------------------
 * finished run on 2026/06/19 at 18:52:18.284     
------------------------------------------------------------------------
 total:
 * wall-time:     0 d,  0 h,  0 min,  0.244 sec
 *  cpu-time:     0 d,  0 h,  0 min,  3.722 sec
 * ratio c/w:    15.248 speedup
 SCF:
 * wall-time:     0 d,  0 h,  0 min,  0.202 sec
 *  cpu-time:     0 d,  0 h,  0 min,  3.189 sec
 * ratio c/w:    15.824 speedup

normal termination of xtb
