      -----------------------------------------------------------      
     |                   =====================                   |     
     |                           x T B                           |     
     |                   =====================                   |     
     |                         S. Grimme                         |     
     |          Mulliken Center for Theoretical Chemistry        |     
     |                    University of Bonn                     |     
      -----------------------------------------------------------      

   * xtb version 6.7.1 (edcfbbe) compiled by 'albert@albert-system' on 2024-07-22

   xtb is free software: you can redistribute it and/or modify it under
   the terms of the GNU Lesser General Public License as published by
   the Free Software Foundation, either version 3 of the License, or
   (at your option) any later version.
   
   xtb is distributed in the hope that it will be useful,
   but WITHOUT ANY WARRANTY; without even the implied warranty of
   MERCHANTABILITY or FITNESS FOR A PARTICULAR PURPOSE.  See the
   GNU Lesser General Public License for more details.
   
   Cite this work as:
   * C. Bannwarth, E. Caldeweyher, S. Ehlert, A. Hansen, P. Pracht,
     J. Seibert, S. Spicher, S. Grimme, WIREs Comput. Mol. Sci., 2020, 11,
     e01493. DOI: 10.1002/wcms.1493
   
   for GFN2-xTB:
   * C. Bannwarth, S. Ehlert and S. Grimme., J. Chem. Theory Comput., 2019,
     15, 1652-1671. DOI: 10.1021/acs.jctc.8b01176
   for GFN1-xTB:
   * S. Grimme, C. Bannwarth, P. Shushkov, J. Chem. Theory Comput., 2017,
     13, 1989-2009. DOI: 10.1021/acs.jctc.7b00118
   for GFN0-xTB:
   * P. Pracht, E. Caldeweyher, S. Ehlert, S. Grimme, ChemRxiv, 2019, preprint.
     DOI: 10.26434/chemrxiv.8326202.v1
   for GFN-FF:
   * S. Spicher and S. Grimme, Angew. Chem. Int. Ed., 2020, 59, 15665-15673.
     DOI: 10.1002/anie.202004239
   
   for ALPB and GBSA implicit solvation:
   * S. Ehlert, M. Stahn, S. Spicher, S. Grimme, J. Chem. Theory Comput.,
     2021, 17, 4250-4261. DOI: 10.1021/acs.jctc.1c00471
   
   for ddCOSMO and CPCM-X implicit solvation:
   * M. Stahn, S. Ehlert, S. Grimme, J. Phys. Chem. A,
     2023, XX, XXXX-XXXX. DOI: 10.1021/acs.jpca.3c04382
   
   for DFT-D4:
   * E. Caldeweyher, C. Bannwarth and S. Grimme, J. Chem. Phys., 2017,
     147, 034112. DOI: 10.1063/1.4993215
   * E. Caldeweyher, S. Ehlert, A. Hansen, H. Neugebauer, S. Spicher,
     C. Bannwarth and S. Grimme, J. Chem. Phys., 2019, 150, 154122.
     DOI: 10.1063/1.5090222
   * E. Caldeweyher, J.-M. Mewes, S. Ehlert and S. Grimme, Phys. Chem. Chem. Phys.
     2020, 22, 8499-8512. DOI: 10.1039/D0CP00502A
   
   for sTDA-xTB:
   * S. Grimme and C. Bannwarth, J. Chem. Phys., 2016, 145, 054103.
     DOI: 10.1063/1.4959605
   
   in the mass-spec context:
   * V. Asgeirsson, C. Bauer and S. Grimme, Chem. Sci., 2017, 8, 4879.
     DOI: 10.1039/c7sc00601b
   * J. Koopman and S. Grimme, ACS Omega 2019, 4, 12, 15120-15133.
     DOI: 10.1021/acsomega.9b02011
   
   for metadynamics refer to:
   * S. Grimme, J. Chem. Theory Comput., 2019, 155, 2847-2862
     DOI: 10.1021/acs.jctc.9b00143
   
   for SPH calculations refer to:
   * S. Spicher and S. Grimme, J. Chem. Theory Comput., 2021, 17, 1701-1714
     DOI: 10.1021/acs.jctc.0c01306
   
   for ONIOM refer to:
   * C. Plett, A. Katbashev, S. Ehlert, S. Grimme, M. Bursch,
     Phys. Chem. Chem. Phys., 2023, 25, 17860-17868. DOI: 10.1039/D3CP02178E
   
   for DIPRO refer to:
   * J. Kohn, N. Gildemeister, S. Grimme, D. Fazzi, A. Hansen,
     J. Chem. Phys., 2023, just accepted.
   
   for PTB refer to:
   * S. Grimme, M. Mueller, A. Hansen, J. Chem. Phys., 2023, 158, 124111.
     DOI: 10.1063/5.0137838
   
   with help from (in alphabetical order)
   P. Atkinson, C. Bannwarth, F. Bohle, G. Brandenburg, E. Caldeweyher
   M. Checinski, S. Dohm, S. Ehlert, S. Ehrlich, I. Gerasimov, C. Hölzer
   A. Katbashev, J. Kohn, J. Koopman, C. Lavigne, S. Lehtola, F. März, M. Müller,
   F. Musil, H. Neugebauer, J. Pisarek, C. Plett, P. Pracht, F. Pultar,
   J. Seibert, P. Shushkov, S. Spicher, M. Stahn, M. Steiner, T. Strunk,
   J. Stückrath, T. Rose, and J. Unsleber
   
 * started run on 2026/06/19 at 18:52:23.890     
   ID    Z sym.   atoms
    1    6 C      1-11, 13, 18, 20, 22-25, 29, 31, 33, 34, 36-41, 43-50,
                  53-57, 59, 64-73
    2    8 O      12, 14-17, 19, 21, 26-28, 30, 32, 35, 42, 51, 52, 58, 60-63
    3    1 H      74-145

           -------------------------------------------------
          |                Calculation Setup                |
           -------------------------------------------------

          program call               : xtb PAPU-0075/conf01.xyz --gfn 2 --alpb water --chrg 0 --uhf 0 --namespace PAPU-0075/conf01_water
          hostname                   : cpu10
          calculation namespace      : PAPU-0075/conf01_water
          coordinate file            : PAPU-0075/conf01.xyz
          omp threads                :                    16


           -------------------------------------------------
          |                 G F N 2 - x T B                 |
           -------------------------------------------------

        Reference                      10.1021/acs.jctc.8b01176
      * Hamiltonian:
        H0-scaling (s, p, d)           1.850000    2.230000    2.230000
        zeta-weighting                 0.500000
      * Dispersion:
        s8                             2.700000
        a1                             0.520000
        a2                             5.000000
        s9                             5.000000
      * Repulsion:
        kExp                           1.500000    1.000000
        rExp                           1.000000
      * Coulomb:
        alpha                          2.000000
        third order                    shell-resolved
        anisotropic                    true
        a3                             3.000000
        a5                             4.000000
        cn-shift                       1.200000
        cn-exp                         4.000000
        max-rad                        5.000000

      * Solvation model:               ALPB
        Solvent                        water
        Parameter file                 internal GFN2-xTB/ALPB
        Dielectric constant                8.0200E+01
        Reference state                gsolv [1 M gas/solution]
        Free energy shift                  1.0808E-03 Eh       6.7819E-01 kcal/mol
        Temperature                        2.9815E+02 K
        Density                            1.0000E+00 kg/L
        Solvent mass                       1.8000E+01 g/mol
        Interaction kernel             P16
        Born radius scaling (c1)           1.4744E+00
        Born radii integrator          GBOBC
        Born offset                        0.0000E+00 a0       0.0000E+00 AA
        H-bond correction              true
        Ion screening                  false
        Surface tension                    1.0000E-05 Eh       1.5569E+01 dyn/cm
        Grid points                               230 per atom

          ...................................................
          :                      SETUP                      :
          :.................................................:
          :  # basis functions                 364          :
          :  # atomic orbitals                 364          :
          :  # shells                          218          :
          :  # electrons                       406          :
          :  max. iterations                   250          :
          :  Hamiltonian                  GFN2-xTB          :
          :  restarted?                      false          :
          :  GBSA solvation                   true          :
          :  PC potential                    false          :
          :  electronic temp.          300.0000000     K    :
          :  accuracy                    1.0000000          :
          :  -> integral cutoff          0.2500000E+02      :
          :  -> integral neglect         0.1000000E-07      :
          :  -> SCF convergence          0.1000000E-05 Eh   :
          :  -> wf. convergence          0.1000000E-03 e    :
          :  Broyden damping             0.4000000          :
          :  net charge                          0          :
          :  unpaired electrons                  0          :
          ...................................................

 iter      E             dE          RMSdq      gap      omega  full diag
   1   -235.7377157 -0.235738E+03  0.432E+00    2.68       0.0  T
   2   -235.9762683 -0.238553E+00  0.235E+00    1.98       1.0  T
   3   -235.9589897  0.172786E-01  0.101E+00    1.91       1.0  T
   4   -235.9976223 -0.386326E-01  0.336E-01    1.64       1.0  T
   5   -236.0046266 -0.700437E-02  0.140E-01    1.62       1.0  T
   6   -236.0054879 -0.861257E-03  0.730E-02    1.63       1.0  T
   7   -236.0056428 -0.154851E-03  0.340E-02    1.63       1.0  T
   8   -236.0056921 -0.493926E-04  0.154E-02    1.63       1.0  T
   9   -236.0057007 -0.860145E-05  0.814E-03    1.63       1.0  T
  10   -236.0057034 -0.268070E-05  0.485E-03    1.62       1.7  T
  11   -236.0057045 -0.111881E-05  0.210E-03    1.62       4.0  T
  12   -236.0057047 -0.105238E-06  0.901E-04    1.62       9.2  T
  13   -236.0057047 -0.494324E-07  0.417E-04    1.62      19.9  T

   *** convergence criteria satisfied after 13 iterations ***

         #    Occupation            Energy/Eh            Energy/eV
      -------------------------------------------------------------
         1        2.0000           -0.7725118             -21.0211
       ...           ...                  ...                  ...
       197        2.0000           -0.4077949             -11.0967
       198        2.0000           -0.4075571             -11.0902
       199        2.0000           -0.4042338             -10.9998
       200        2.0000           -0.4023945             -10.9497
       201        2.0000           -0.3994908             -10.8707
       202        2.0000           -0.3863505             -10.5131
       203        2.0000           -0.3703585             -10.0780 (HOMO)
       204                         -0.3107637              -8.4563 (LUMO)
       205                         -0.2917140              -7.9379
       206                         -0.2409353              -6.5562
       207                         -0.2343459              -6.3769
       208                         -0.2323913              -6.3237
       ...                                ...                  ...
       364                          0.6778616              18.4456
      -------------------------------------------------------------
                  HL-Gap            0.0595948 Eh            1.6217 eV
             Fermi-level           -0.3405611 Eh           -9.2671 eV

 SCC (total)                   0 d,  0 h,  0 min,  0.261 sec
 SCC setup                      ...        0 min,  0.003 sec (  1.267%)
 Dispersion                     ...        0 min,  0.004 sec (  1.715%)
 classical contributions        ...        0 min,  0.000 sec (  0.084%)
 integral evaluation            ...        0 min,  0.012 sec (  4.483%)
 iterations                     ...        0 min,  0.200 sec ( 76.627%)
 molecular gradient             ...        0 min,  0.039 sec ( 15.080%)
 printout                       ...        0 min,  0.002 sec (  0.724%)

         :::::::::::::::::::::::::::::::::::::::::::::::::::::
         ::                     SUMMARY                     ::
         :::::::::::::::::::::::::::::::::::::::::::::::::::::
         :: total energy            -233.502339404457 Eh    ::
         :: total w/o Gsasa/hb      -233.464898035179 Eh    ::
         :: gradient norm              0.124524288580 Eh/a0 ::
         :: HOMO-LUMO gap              1.621657348890 eV    ::
         ::.................................................::
         :: SCC energy              -235.989789361680 Eh    ::
         :: -> isotropic ES            0.546895515734 Eh    ::
         :: -> anisotropic ES         -0.025158981264 Eh    ::
         :: -> anisotropic XC          0.020946662907 Eh    ::
         :: -> dispersion             -0.193618522989 Eh    ::
         :: -> Gsolv                  -0.087923115846 Eh    ::
         ::    -> Gelec               -0.050481746568 Eh    ::
         ::    -> Gsasa                0.005992251892 Eh    ::
         ::    -> Ghb                 -0.044514380868 Eh    ::
         ::    -> Gshift               0.001080759698 Eh    ::
         :: repulsion energy           2.487449957223 Eh    ::
         :: add. restraining           0.000000000000 Eh    ::
         :: total charge              -0.000000000000 e     ::
         :::::::::::::::::::::::::::::::::::::::::::::::::::::

           -------------------------------------------------
          |                Property Printout                |
           -------------------------------------------------

    * Orbital Energies and Occupations

         #    Occupation            Energy/Eh            Energy/eV
      -------------------------------------------------------------
         1        2.0000           -0.7725118             -21.0211
       ...           ...                  ...                  ...
       191        2.0000           -0.4163445             -11.3293
       192        2.0000           -0.4147267             -11.2853
       193        2.0000           -0.4143522             -11.2751
       194        2.0000           -0.4137249             -11.2580
       195        2.0000           -0.4129667             -11.2374
       196        2.0000           -0.4097271             -11.1492
       197        2.0000           -0.4077949             -11.0967
       198        2.0000           -0.4075571             -11.0902
       199        2.0000           -0.4042338             -10.9998
       200        2.0000           -0.4023945             -10.9497
       201        2.0000           -0.3994908             -10.8707
       202        2.0000           -0.3863505             -10.5131
       203        2.0000           -0.3703585             -10.0780 (HOMO)
       204                         -0.3107637              -8.4563 (LUMO)
       205                         -0.2917140              -7.9379
       206                         -0.2409353              -6.5562
       207                         -0.2343459              -6.3769
       208                         -0.2323913              -6.3237
       209                         -0.2273218              -6.1857
       210                         -0.2263855              -6.1603
       211                         -0.2030247              -5.5246
       212                         -0.1671398              -4.5481
       213                         -0.1447270              -3.9382
       214                         -0.1104441              -3.0053
       ...                                ...                  ...
       364                          0.6778616              18.4456
      -------------------------------------------------------------
                  HL-Gap            0.0595948 Eh            1.6217 eV
             Fermi-level           -0.3405611 Eh           -9.2671 eV

     #   Z          covCN         q      C6AA      α(0)
     1   6 C        2.840     0.141    24.915     8.180
     2   6 C        2.975    -0.034    28.838     8.809
     3   6 C        2.964    -0.003    28.087     8.693
     4   6 C        2.929    -0.075    29.871     8.963
     5   6 C        2.836     0.147    24.800     8.161
     6   6 C        2.921    -0.112    30.844     9.108
     7   6 C        3.741     0.109    18.861     6.196
     8   6 C        3.721     0.096    19.104     6.243
     9   6 C        3.750     0.108    18.862     6.194
    10   6 C        3.747     0.103    18.954     6.210
    11   6 C        3.739     0.090    19.157     6.245
    12   8 O        1.695    -0.344    19.783     6.005
    13   6 C        3.682     0.077    19.497     6.323
    14   8 O        1.651    -0.486    22.596     6.417
    15   8 O        1.651    -0.488    22.638     6.423
    16   8 O        1.698    -0.321    19.365     5.941
    17   8 O        1.702    -0.295    18.910     5.871
    18   6 C        3.676     0.076    19.520     6.330
    19   8 O        1.654    -0.475    22.359     6.383
    20   6 C        3.636     0.244    17.161     5.961
    21   8 O        1.696    -0.363    20.125     6.057
    22   6 C        3.744     0.116    18.754     6.178
    23   6 C        3.722     0.096    19.095     6.240
    24   6 C        3.722     0.093    19.142     6.248
    25   6 C        3.740     0.093    19.121     6.239
    26   8 O        1.654    -0.488    22.635     6.422
    27   8 O        1.698    -0.326    19.457     5.955
    28   8 O        1.653    -0.495    22.778     6.443
    29   6 C        3.744     0.072    19.446     6.291
    30   8 O        1.703    -0.277    18.598     5.823
    31   6 C        2.765     0.347    21.104     7.523
    32   8 O        0.857    -0.479    23.317     6.474
    33   6 C        2.723     0.353    21.007     7.503
    34   6 C        2.898    -0.085    30.115     8.998
    35   8 O        0.857    -0.482    23.398     6.485
    36   6 C        2.901     0.005    27.918     8.664
    37   6 C        2.899    -0.046    29.138     8.851
    38   6 C        2.893    -0.013    28.337     8.728
    39   6 C        3.804    -0.078    21.990     6.676
    40   6 C        3.725     0.118    18.746     6.182
    41   6 C        2.895    -0.070    29.739     8.941
    42   8 O        1.652    -0.520    23.322     6.519
    43   6 C        2.897    -0.043    29.071     8.840
    44   6 C        2.898    -0.060    29.479     8.902
    45   6 C        2.894    -0.041    29.028     8.833
    46   6 C        3.806    -0.072    21.864     6.656
    47   6 C        3.800    -0.056    21.581     6.614
    48   6 C        3.801    -0.061    21.667     6.627
    49   6 C        3.799    -0.061    21.671     6.628
    50   6 C        3.750    -0.105    22.563     6.774
    51   8 O        1.656    -0.453    21.901     6.318
    52   8 O        1.657    -0.452    21.887     6.316
    53   6 C        3.637     0.237    17.241     5.973
    54   6 C        3.722     0.093    19.149     6.249
    55   6 C        3.725     0.100    19.031     6.229
    56   6 C        3.724     0.085    19.265     6.268
    57   6 C        3.744     0.101    18.979     6.215
    58   8 O        1.695    -0.377    20.393     6.097
    59   6 C        3.673     0.081    19.452     6.321
    60   8 O        1.653    -0.491    22.698     6.431
    61   8 O        1.654    -0.469    22.231     6.365
    62   8 O        1.653    -0.473    22.326     6.378
    63   8 O        1.651    -0.475    22.371     6.385
    64   6 C        2.974    -0.031    28.771     8.798
    65   6 C        2.927    -0.025    28.616     8.773
    66   6 C        2.927    -0.037    28.919     8.819
    67   6 C        2.972     0.037    27.175     8.551
    68   6 C        2.928    -0.034    28.850     8.809
    69   6 C        2.927    -0.021    28.528     8.759
    70   6 C        3.807    -0.074    21.914     6.664
    71   6 C        3.801    -0.059    21.629     6.622
    72   6 C        3.799    -0.058    21.616     6.620
    73   6 C        3.750    -0.107    22.600     6.780
    74   1 H        0.926     0.068     2.107     2.270
    75   1 H        0.926     0.071     2.077     2.254
    76   1 H        0.924     0.035     2.517     2.481
    77   1 H        0.923     0.063     2.162     2.300
    78   1 H        0.924     0.030     2.581     2.513
    79   1 H        0.923     0.087     1.904     2.158
    80   1 H        0.924     0.045     2.378     2.411
    81   1 H        0.924     0.059     2.211     2.326
    82   1 H        0.924     0.025     2.666     2.554
    83   1 H        0.801     0.323     0.657     1.274
    84   1 H        0.802     0.330     0.639     1.256
    85   1 H        0.924     0.050     2.320     2.382
    86   1 H        0.924     0.063     2.167     2.302
    87   1 H        0.803     0.349     0.590     1.207
    88   1 H        0.924     0.012     2.859     2.644
    89   1 H        0.923     0.027     2.632     2.537
    90   1 H        0.923     0.050     2.315     2.380
    91   1 H        0.923     0.051     2.303     2.373
    92   1 H        0.924     0.089     1.891     2.151
    93   1 H        0.804     0.368     0.547     1.162
    94   1 H        0.803     0.379     0.524     1.138
    95   1 H        0.924     0.098     1.806     2.102
    96   1 H        0.924     0.084     1.936     2.176
    97   1 H        0.926     0.080     1.976     2.198
    98   1 H        0.926     0.073     2.056     2.242
    99   1 H        0.926     0.072     2.062     2.245
   100   1 H        0.926     0.068     2.112     2.273
   101   1 H        0.924     0.081     1.972     2.196
   102   1 H        0.924     0.097     1.812     2.105
   103   1 H        0.923     0.023     2.692     2.566
   104   1 H        0.926     0.061     2.192     2.315
   105   1 H        0.804     0.356     0.576     1.192
   106   1 H        0.926     0.036     2.497     2.471
   107   1 H        0.926     0.054     2.270     2.356
   108   1 H        0.926     0.033     2.547     2.496
   109   1 H        0.924     0.054     2.268     2.355
   110   1 H        0.924     0.051     2.310     2.377
   111   1 H        0.924     0.031     2.575     2.509
   112   1 H        0.924     0.018     2.758     2.597
   113   1 H        0.924     0.025     2.658     2.549
   114   1 H        0.924     0.032     2.561     2.503
   115   1 H        0.924     0.042     2.427     2.436
   116   1 H        0.924     0.028     2.616     2.530
   117   1 H        0.924     0.043     2.407     2.426
   118   1 H        0.924     0.025     2.659     2.550
   119   1 H        0.924     0.034     2.530     2.487
   120   1 H        0.804     0.381     0.520     1.133
   121   1 H        0.804     0.381     0.521     1.134
   122   1 H        0.923     0.014     2.827     2.629
   123   1 H        0.923     0.052     2.294     2.368
   124   1 H        0.923     0.054     2.273     2.357
   125   1 H        0.923     0.052     2.296     2.370
   126   1 H        0.923     0.015     2.808     2.621
   127   1 H        0.923     0.029     2.605     2.524
   128   1 H        0.924     0.071     2.076     2.253
   129   1 H        0.803     0.361     0.564     1.179
   130   1 H        0.804     0.364     0.556     1.171
   131   1 H        0.803     0.361     0.562     1.178
   132   1 H        0.802     0.340     0.613     1.230
   133   1 H        0.926     0.060     2.198     2.318
   134   1 H        0.926     0.066     2.126     2.280
   135   1 H        0.926     0.073     2.053     2.241
   136   1 H        0.926     0.054     2.275     2.358
   137   1 H        0.924     0.053     2.288     2.366
   138   1 H        0.924     0.061     2.190     2.314
   139   1 H        0.924     0.047     2.359     2.402
   140   1 H        0.924     0.039     2.461     2.453
   141   1 H        0.924     0.029     2.601     2.522
   142   1 H        0.924     0.034     2.536     2.490
   143   1 H        0.924     0.035     2.512     2.479
   144   1 H        0.924     0.026     2.645     2.544
   145   1 H        0.924     0.043     2.406     2.425

 Mol. C6AA /au·bohr⁶  :     199640.007916
 Mol. C8AA /au·bohr⁸  :    4520520.080628
 Mol. α(0) /au        :        670.374255


Wiberg/Mayer (AO) data.
largest (>0.10) Wiberg bond orders for each atom

 ---------------------------------------------------------------------------
     #   Z sym  total        # sym  WBO       # sym  WBO       # sym  WBO
 ---------------------------------------------------------------------------
     1   6 C    3.944 --     6 C    1.388     2 C    1.335    51 O    1.074
     2   6 C    3.975 --     3 C    1.391     1 C    1.335     7 C    0.991
     3   6 C    3.987 --     4 C    1.428     2 C    1.391    13 C    1.001
     4   6 C    3.983 --     3 C    1.428     5 C    1.361    74 H    0.964
     5   6 C    3.944 --     6 C    1.378     4 C    1.361    52 O    1.078
     6   6 C    3.975 --     1 C    1.388     5 C    1.378    75 H    0.959
     7   6 C    3.943 --     2 C    0.991    12 O    0.953     8 C    0.952
                            76 H    0.951
     8   6 C    3.948 --    15 O    0.986     9 C    0.966    77 H    0.955
                             7 C    0.952
     9   6 C    3.930 --    10 C    0.969     8 C    0.966    78 H    0.953
                            17 O    0.938
    10   6 C    3.934 --     9 C    0.969    16 O    0.963    11 C    0.958
                            79 H    0.948
    11   6 C    3.947 --    18 C    0.983    12 O    0.969    10 C    0.958
                            80 H    0.947
    12   8 O    2.058 --    11 C    0.969     7 C    0.953
    13   6 C    3.958 --     3 C    1.001    14 O    0.988    81 H    0.969
                            82 H    0.955
    14   8 O    1.931 --    13 C    0.988    83 H    0.848
    15   8 O    1.945 --     8 C    0.986    84 H    0.832
    16   8 O    2.093 --    20 C    0.983    10 C    0.963
    17   8 O    2.265 --    33 C    1.087     9 C    0.938    35 O    0.147
    18   6 C    3.960 --    19 O    1.010    11 C    0.983    85 H    0.966
                            86 H    0.966
    19   8 O    1.935 --    18 C    1.010    87 H    0.857
    20   6 C    3.924 --    16 O    0.983    25 C    0.953    21 O    0.952
                            88 H    0.939
    21   8 O    2.057 --    20 C    0.952    22 C    0.951
    22   6 C    3.941 --    29 C    0.983    23 C    0.969    89 H    0.952
                            21 O    0.951
    23   6 C    3.967 --    28 O    1.007    22 C    0.969    24 C    0.969
                            90 H    0.956
    24   6 C    3.961 --    26 O    1.000    23 C    0.969    25 C    0.962
                            91 H    0.953
    25   6 C    3.936 --    27 O    0.966    24 C    0.962    92 H    0.953
                            20 C    0.953
    26   8 O    1.928 --    24 C    1.000    93 H    0.847
    27   8 O    2.079 --    53 C    0.976    25 C    0.966
    28   8 O    1.913 --    23 C    1.007    94 H    0.834
    29   6 C    3.924 --    22 C    0.983    95 H    0.962    30 O    0.959
                            96 H    0.959
    30   8 O    2.282 --    31 C    1.096    29 C    0.959    32 O    0.145
    31   6 C    3.894 --    32 O    1.649    30 O    1.096    64 C    1.040
    32   8 O    1.982 --    31 C    1.649    30 O    0.145
    33   6 C    3.898 --    35 O    1.621    17 O    1.087    34 C    1.079
    34   6 C    3.969 --    36 C    1.710    33 C    1.079    97 H    0.960
                            38 C    0.102
    35   8 O    1.988 --    33 C    1.621    17 O    0.147
    36   6 C    3.973 --    34 C    1.710    37 C    1.154    98 H    0.954
    37   6 C    3.985 --    38 C    1.777    36 C    1.154    99 H    0.953
    38   6 C    3.972 --    37 C    1.777    39 C    1.046   100 H    0.959
                            34 C    0.102
    39   6 C    3.985 --    38 C    1.046    40 C    0.974   101 H    0.960
                           102 H    0.932
    40   6 C    3.952 --    41 C    1.005    39 C    0.974    42 O    0.968
                           103 H    0.960
    41   6 C    3.978 --    43 C    1.835    40 C    1.005   104 H    0.959
                            45 C    0.126
    42   8 O    1.900 --    40 C    0.968   105 H    0.859
    43   6 C    3.990 --    41 C    1.835    44 C    1.120   106 H    0.960
    44   6 C    3.989 --    45 C    1.827    43 C    1.120   107 H    0.956
    45   6 C    3.981 --    44 C    1.827    46 C    1.032   108 H    0.965
                            41 C    0.126
    46   6 C    3.994 --    45 C    1.032    47 C    1.004   110 H    0.956
                           109 H    0.949
    47   6 C    3.996 --    48 C    1.007    46 C    1.004   111 H    0.977
                           112 H    0.975
    48   6 C    3.996 --    49 C    1.008    47 C    1.007   114 H    0.976
                           113 H    0.976
    49   6 C    3.995 --    50 C    1.020    48 C    1.008   116 H    0.977
                           115 H    0.966
    50   6 C    3.996 --    49 C    1.020   118 H    0.987   119 H    0.987
                           117 H    0.985
    51   8 O    2.076 --     1 C    1.074   120 H    0.835
    52   8 O    2.073 --     5 C    1.078   121 H    0.837
    53   6 C    3.914 --    27 O    0.976    54 C    0.951   122 H    0.949
                            58 O    0.949
    54   6 C    3.959 --    62 O    1.003    55 C    0.965   123 H    0.957
                            53 C    0.951
    55   6 C    3.966 --    61 O    1.013    54 C    0.965    56 C    0.964
                           124 H    0.952
    56   6 C    3.964 --    60 O    1.003    57 C    0.965    55 C    0.964
                           125 H    0.952
    57   6 C    3.934 --    59 C    0.983    56 C    0.965    58 O    0.946
                           126 H    0.944
    58   8 O    2.057 --    53 C    0.949    57 C    0.946
    59   6 C    3.960 --    63 O    1.002    57 C    0.983   127 H    0.968
                           128 H    0.961
    60   8 O    1.919 --    56 C    1.003   129 H    0.830
    61   8 O    1.949 --    55 C    1.013   130 H    0.849
    62   8 O    1.946 --    54 C    1.003   131 H    0.851
    63   8 O    1.946 --    59 C    1.002   132 H    0.838
    64   6 C    3.980 --    69 C    1.367    65 C    1.361    31 C    1.040
    65   6 C    3.988 --    66 C    1.472    64 C    1.361   133 H    0.964
                            68 C    0.100
    66   6 C    3.988 --    65 C    1.472    67 C    1.391   134 H    0.965
    67   6 C    3.983 --    68 C    1.394    66 C    1.391    70 C    1.018
    68   6 C    3.988 --    69 C    1.466    67 C    1.394   135 H    0.959
                            65 C    0.100
    69   6 C    3.989 --    68 C    1.466    64 C    1.367   136 H    0.963
    70   6 C    3.992 --    67 C    1.018    71 C    0.986   137 H    0.973
                           138 H    0.964
    71   6 C    3.992 --    72 C    1.008    70 C    0.986   140 H    0.976
                           139 H    0.974
    72   6 C    3.996 --    73 C    1.021    71 C    1.008   142 H    0.977
                           141 H    0.968
    73   6 C    3.996 --    72 C    1.021   144 H    0.987   145 H    0.986
                           143 H    0.985
    74   1 H    0.995 --     4 C    0.964
    75   1 H    0.994 --     6 C    0.959
    76   1 H    0.998 --     7 C    0.951
    77   1 H    0.996 --     8 C    0.955
    78   1 H    0.999 --     9 C    0.953
    79   1 H    0.992 --    10 C    0.948
    80   1 H    0.998 --    11 C    0.947
    81   1 H    0.996 --    13 C    0.969
    82   1 H    0.999 --    13 C    0.955
    83   1 H    0.896 --    14 O    0.848
    84   1 H    0.891 --    15 O    0.832
    85   1 H    0.997 --    18 C    0.966
    86   1 H    0.995 --    18 C    0.966
    87   1 H    0.878 --    19 O    0.857
    88   1 H    1.000 --    20 C    0.939
    89   1 H    0.999 --    22 C    0.952
    90   1 H    0.997 --    23 C    0.956
    91   1 H    0.997 --    24 C    0.953
    92   1 H    0.992 --    25 C    0.953
    93   1 H    0.864 --    26 O    0.847
    94   1 H    0.856 --    28 O    0.834
    95   1 H    0.990 --    29 C    0.962
    96   1 H    0.992 --    29 C    0.959
    97   1 H    0.994 --    34 C    0.960
    98   1 H    0.995 --    36 C    0.954
    99   1 H    0.995 --    37 C    0.953
   100   1 H    0.995 --    38 C    0.959
   101   1 H    0.991 --    39 C    0.960
   102   1 H    0.979 --    39 C    0.932
   103   1 H    0.999 --    40 C    0.960
   104   1 H    0.996 --    41 C    0.959
   105   1 H    0.873 --    42 O    0.859
   106   1 H    0.999 --    43 C    0.960
   107   1 H    0.997 --    44 C    0.956
   108   1 H    0.999 --    45 C    0.965
   109   1 H    0.990 --    46 C    0.949
   110   1 H    0.997 --    46 C    0.956
   111   1 H    0.999 --    47 C    0.977
   112   1 H    1.000 --    47 C    0.975
   113   1 H    0.999 --    48 C    0.976
   114   1 H    0.999 --    48 C    0.976
   115   1 H    0.998 --    49 C    0.966
   116   1 H    0.999 --    49 C    0.977
   117   1 H    0.998 --    50 C    0.985
   118   1 H    0.999 --    50 C    0.987
   119   1 H    0.999 --    50 C    0.987
   120   1 H    0.854 --    51 O    0.835
   121   1 H    0.854 --    52 O    0.837
   122   1 H    1.000 --    53 C    0.949
   123   1 H    0.997 --    54 C    0.957
   124   1 H    0.997 --    55 C    0.952
   125   1 H    0.996 --    56 C    0.952
   126   1 H    1.000 --    57 C    0.944
   127   1 H    0.999 --    59 C    0.968
   128   1 H    0.994 --    59 C    0.961
   129   1 H    0.870 --    60 O    0.830
   130   1 H    0.867 --    61 O    0.849
   131   1 H    0.869 --    62 O    0.851
   132   1 H    0.884 --    63 O    0.838
   133   1 H    0.996 --    65 C    0.964
   134   1 H    0.995 --    66 C    0.965
   135   1 H    0.994 --    68 C    0.959
   136   1 H    0.997 --    69 C    0.963
   137   1 H    0.997 --    70 C    0.973
   138   1 H    0.995 --    70 C    0.964
   139   1 H    0.997 --    71 C    0.974
   140   1 H    0.998 --    71 C    0.976
   141   1 H    0.999 --    72 C    0.968
   142   1 H    0.999 --    72 C    0.977
   143   1 H    0.999 --    73 C    0.985
   144   1 H    0.999 --    73 C    0.987
   145   1 H    0.998 --    73 C    0.986
 ---------------------------------------------------------------------------

Topologies differ in total number of bonds
Writing topology from bond orders to xtbtopo.mol

molecular dipole:
                 x           y           z       tot (Debye)
 q only:        0.286       1.349       2.497
   full:        0.001       1.037       2.422       6.697
molecular quadrupole (traceless):
                xx          xy          yy          xz          yz          zz
 q only:      -10.502       3.416       7.428     -30.295       4.344       3.074
  q+dip:      -24.391       1.726      -0.538     -39.706       3.845      24.929
   full:      -24.170      -0.042       0.533     -35.513       4.191      23.637


           -------------------------------------------------
          | TOTAL ENERGY             -233.502339404457 Eh   |
          | GRADIENT NORM               0.124524288580 Eh/α |
          | HOMO-LUMO GAP               1.621657348890 eV   |
           -------------------------------------------------

------------------------------------------------------------------------
 * finished run on 2026/06/19 at 18:52:24.210     
------------------------------------------------------------------------
 total:
 * wall-time:     0 d,  0 h,  0 min,  0.320 sec
 *  cpu-time:     0 d,  0 h,  0 min,  4.826 sec
 * ratio c/w:    15.083 speedup
 SCF:
 * wall-time:     0 d,  0 h,  0 min,  0.262 sec
 *  cpu-time:     0 d,  0 h,  0 min,  4.088 sec
 * ratio c/w:    15.630 speedup

normal termination of xtb
