      -----------------------------------------------------------      
     |                   =====================                   |     
     |                           x T B                           |     
     |                   =====================                   |     
     |                         S. Grimme                         |     
     |          Mulliken Center for Theoretical Chemistry        |     
     |                    University of Bonn                     |     
      -----------------------------------------------------------      

   * xtb version 6.7.1 (edcfbbe) compiled by 'albert@albert-system' on 2024-07-22

   xtb is free software: you can redistribute it and/or modify it under
   the terms of the GNU Lesser General Public License as published by
   the Free Software Foundation, either version 3 of the License, or
   (at your option) any later version.
   
   xtb is distributed in the hope that it will be useful,
   but WITHOUT ANY WARRANTY; without even the implied warranty of
   MERCHANTABILITY or FITNESS FOR A PARTICULAR PURPOSE.  See the
   GNU Lesser General Public License for more details.
   
   Cite this work as:
   * C. Bannwarth, E. Caldeweyher, S. Ehlert, A. Hansen, P. Pracht,
     J. Seibert, S. Spicher, S. Grimme, WIREs Comput. Mol. Sci., 2020, 11,
     e01493. DOI: 10.1002/wcms.1493
   
   for GFN2-xTB:
   * C. Bannwarth, S. Ehlert and S. Grimme., J. Chem. Theory Comput., 2019,
     15, 1652-1671. DOI: 10.1021/acs.jctc.8b01176
   for GFN1-xTB:
   * S. Grimme, C. Bannwarth, P. Shushkov, J. Chem. Theory Comput., 2017,
     13, 1989-2009. DOI: 10.1021/acs.jctc.7b00118
   for GFN0-xTB:
   * P. Pracht, E. Caldeweyher, S. Ehlert, S. Grimme, ChemRxiv, 2019, preprint.
     DOI: 10.26434/chemrxiv.8326202.v1
   for GFN-FF:
   * S. Spicher and S. Grimme, Angew. Chem. Int. Ed., 2020, 59, 15665-15673.
     DOI: 10.1002/anie.202004239
   
   for ALPB and GBSA implicit solvation:
   * S. Ehlert, M. Stahn, S. Spicher, S. Grimme, J. Chem. Theory Comput.,
     2021, 17, 4250-4261. DOI: 10.1021/acs.jctc.1c00471
   
   for ddCOSMO and CPCM-X implicit solvation:
   * M. Stahn, S. Ehlert, S. Grimme, J. Phys. Chem. A,
     2023, XX, XXXX-XXXX. DOI: 10.1021/acs.jpca.3c04382
   
   for DFT-D4:
   * E. Caldeweyher, C. Bannwarth and S. Grimme, J. Chem. Phys., 2017,
     147, 034112. DOI: 10.1063/1.4993215
   * E. Caldeweyher, S. Ehlert, A. Hansen, H. Neugebauer, S. Spicher,
     C. Bannwarth and S. Grimme, J. Chem. Phys., 2019, 150, 154122.
     DOI: 10.1063/1.5090222
   * E. Caldeweyher, J.-M. Mewes, S. Ehlert and S. Grimme, Phys. Chem. Chem. Phys.
     2020, 22, 8499-8512. DOI: 10.1039/D0CP00502A
   
   for sTDA-xTB:
   * S. Grimme and C. Bannwarth, J. Chem. Phys., 2016, 145, 054103.
     DOI: 10.1063/1.4959605
   
   in the mass-spec context:
   * V. Asgeirsson, C. Bauer and S. Grimme, Chem. Sci., 2017, 8, 4879.
     DOI: 10.1039/c7sc00601b
   * J. Koopman and S. Grimme, ACS Omega 2019, 4, 12, 15120-15133.
     DOI: 10.1021/acsomega.9b02011
   
   for metadynamics refer to:
   * S. Grimme, J. Chem. Theory Comput., 2019, 155, 2847-2862
     DOI: 10.1021/acs.jctc.9b00143
   
   for SPH calculations refer to:
   * S. Spicher and S. Grimme, J. Chem. Theory Comput., 2021, 17, 1701-1714
     DOI: 10.1021/acs.jctc.0c01306
   
   for ONIOM refer to:
   * C. Plett, A. Katbashev, S. Ehlert, S. Grimme, M. Bursch,
     Phys. Chem. Chem. Phys., 2023, 25, 17860-17868. DOI: 10.1039/D3CP02178E
   
   for DIPRO refer to:
   * J. Kohn, N. Gildemeister, S. Grimme, D. Fazzi, A. Hansen,
     J. Chem. Phys., 2023, just accepted.
   
   for PTB refer to:
   * S. Grimme, M. Mueller, A. Hansen, J. Chem. Phys., 2023, 158, 124111.
     DOI: 10.1063/5.0137838
   
   with help from (in alphabetical order)
   P. Atkinson, C. Bannwarth, F. Bohle, G. Brandenburg, E. Caldeweyher
   M. Checinski, S. Dohm, S. Ehlert, S. Ehrlich, I. Gerasimov, C. Hölzer
   A. Katbashev, J. Kohn, J. Koopman, C. Lavigne, S. Lehtola, F. März, M. Müller,
   F. Musil, H. Neugebauer, J. Pisarek, C. Plett, P. Pracht, F. Pultar,
   J. Seibert, P. Shushkov, S. Spicher, M. Stahn, M. Steiner, T. Strunk,
   J. Stückrath, T. Rose, and J. Unsleber
   
 * started run on 2026/06/19 at 18:52:24.883     
   ID    Z sym.   atoms
    1    6 C      1-11, 13, 18, 20, 22-25, 29, 31, 33, 34, 36-41, 43-50,
                  53-57, 59, 64-73
    2    8 O      12, 14-17, 19, 21, 26-28, 30, 32, 35, 42, 51, 52, 58, 60-63
    3    1 H      74-145

           -------------------------------------------------
          |                Calculation Setup                |
           -------------------------------------------------

          program call               : xtb PAPU-0075/conf02.xyz --gfn 2 --alpb octanol --chrg 0 --uhf 0 --namespace PAPU-0075/conf02_octanol
          hostname                   : cpu10
          calculation namespace      : PAPU-0075/conf02_octanol
          coordinate file            : PAPU-0075/conf02.xyz
          omp threads                :                    16


           -------------------------------------------------
          |                 G F N 2 - x T B                 |
           -------------------------------------------------

        Reference                      10.1021/acs.jctc.8b01176
      * Hamiltonian:
        H0-scaling (s, p, d)           1.850000    2.230000    2.230000
        zeta-weighting                 0.500000
      * Dispersion:
        s8                             2.700000
        a1                             0.520000
        a2                             5.000000
        s9                             5.000000
      * Repulsion:
        kExp                           1.500000    1.000000
        rExp                           1.000000
      * Coulomb:
        alpha                          2.000000
        third order                    shell-resolved
        anisotropic                    true
        a3                             3.000000
        a5                             4.000000
        cn-shift                       1.200000
        cn-exp                         4.000000
        max-rad                        5.000000

      * Solvation model:               ALPB
        Solvent                        octanol
        Parameter file                 internal GFN2-xTB/ALPB
        Dielectric constant                9.8629E+00
        Reference state                gsolv [1 M gas/solution]
        Free energy shift                  2.3397E-03 Eh       1.4682E+00 kcal/mol
        Temperature                        2.9815E+02 K
        Density                            8.3000E-01 kg/L
        Solvent mass                       1.3023E+02 g/mol
        Interaction kernel             P16
        Born radius scaling (c1)           1.5898E+00
        Born radii integrator          GBOBC
        Born offset                        0.0000E+00 a0       0.0000E+00 AA
        H-bond correction              true
        Ion screening                  false
        Surface tension                    1.0000E-05 Eh       1.5569E+01 dyn/cm
        Grid points                               230 per atom

          ...................................................
          :                      SETUP                      :
          :.................................................:
          :  # basis functions                 364          :
          :  # atomic orbitals                 364          :
          :  # shells                          218          :
          :  # electrons                       406          :
          :  max. iterations                   250          :
          :  Hamiltonian                  GFN2-xTB          :
          :  restarted?                      false          :
          :  GBSA solvation                   true          :
          :  PC potential                    false          :
          :  electronic temp.          300.0000000     K    :
          :  accuracy                    1.0000000          :
          :  -> integral cutoff          0.2500000E+02      :
          :  -> integral neglect         0.1000000E-07      :
          :  -> SCF convergence          0.1000000E-05 Eh   :
          :  -> wf. convergence          0.1000000E-03 e    :
          :  Broyden damping             0.4000000          :
          :  net charge                          0          :
          :  unpaired electrons                  0          :
          ...................................................

 iter      E             dE          RMSdq      gap      omega  full diag
   1   -235.7506189 -0.235751E+03  0.430E+00    2.74       0.0  T
   2   -235.9947658 -0.244147E+00  0.235E+00    1.87       1.0  T
   3   -235.9806146  0.141513E-01  0.102E+00    1.86       1.0  T
   4   -236.0172439 -0.366293E-01  0.309E-01    1.57       1.0  T
   5   -236.0233004 -0.605651E-02  0.137E-01    1.57       1.0  T
   6   -236.0243933 -0.109290E-02  0.646E-02    1.59       1.0  T
   7   -236.0245180 -0.124747E-03  0.297E-02    1.60       1.0  T
   8   -236.0245588 -0.407685E-04  0.124E-02    1.60       1.0  T
   9   -236.0245665 -0.774723E-05  0.592E-03    1.60       1.4  T
  10   -236.0245683 -0.180161E-05  0.281E-03    1.60       3.0  T
  11   -236.0245686 -0.258272E-06  0.133E-03    1.59       6.3  T
  12   -236.0245686 -0.280270E-07  0.622E-04    1.59      13.4  T
  13   -236.0245686 -0.235123E-07  0.261E-04    1.60      31.9  T

   *** convergence criteria satisfied after 13 iterations ***

         #    Occupation            Energy/Eh            Energy/eV
      -------------------------------------------------------------
         1        2.0000           -0.7799753             -21.2242
       ...           ...                  ...                  ...
       197        2.0000           -0.4136322             -11.2555
       198        2.0000           -0.4123560             -11.2208
       199        2.0000           -0.4097600             -11.1501
       200        2.0000           -0.4071510             -11.0791
       201        2.0000           -0.4026731             -10.9573
       202        2.0000           -0.3940511             -10.7227
       203        2.0000           -0.3748839             -10.2011 (HOMO)
       204                         -0.3162684              -8.6061 (LUMO)
       205                         -0.2958475              -8.0504
       206                         -0.2457999              -6.6886
       207                         -0.2418582              -6.5813
       208                         -0.2375710              -6.4646
       ...                                ...                  ...
       364                          0.6755731              18.3833
      -------------------------------------------------------------
                  HL-Gap            0.0586155 Eh            1.5950 eV
             Fermi-level           -0.3455762 Eh           -9.4036 eV

 SCC (total)                   0 d,  0 h,  0 min,  0.259 sec
 SCC setup                      ...        0 min,  0.003 sec (  1.160%)
 Dispersion                     ...        0 min,  0.004 sec (  1.689%)
 classical contributions        ...        0 min,  0.000 sec (  0.047%)
 integral evaluation            ...        0 min,  0.011 sec (  4.383%)
 iterations                     ...        0 min,  0.199 sec ( 76.855%)
 molecular gradient             ...        0 min,  0.039 sec ( 15.175%)
 printout                       ...        0 min,  0.002 sec (  0.675%)

         :::::::::::::::::::::::::::::::::::::::::::::::::::::
         ::                     SUMMARY                     ::
         :::::::::::::::::::::::::::::::::::::::::::::::::::::
         :: total energy            -233.523144798988 Eh    ::
         :: total w/o Gsasa/hb      -233.447759928043 Eh    ::
         :: gradient norm              0.124289199521 Eh/a0 ::
         :: HOMO-LUMO gap              1.595009129374 eV    ::
         ::.................................................::
         :: SCC energy              -236.008919729326 Eh    ::
         :: -> isotropic ES            0.528613246971 Eh    ::
         :: -> anisotropic ES         -0.025388782875 Eh    ::
         :: -> anisotropic XC          0.020448753606 Eh    ::
         :: -> dispersion             -0.193401608364 Eh    ::
         :: -> Gsolv                  -0.103771948657 Eh    ::
         ::    -> Gelec               -0.028387077712 Eh    ::
         ::    -> Gsasa               -0.029905349370 Eh    ::
         ::    -> Ghb                 -0.047819190950 Eh    ::
         ::    -> Gshift               0.002339669376 Eh    ::
         :: repulsion energy           2.485774930338 Eh    ::
         :: add. restraining           0.000000000000 Eh    ::
         :: total charge               0.000000000000 e     ::
         :::::::::::::::::::::::::::::::::::::::::::::::::::::

           -------------------------------------------------
          |                Property Printout                |
           -------------------------------------------------

    * Orbital Energies and Occupations

         #    Occupation            Energy/Eh            Energy/eV
      -------------------------------------------------------------
         1        2.0000           -0.7799753             -21.2242
       ...           ...                  ...                  ...
       191        2.0000           -0.4225200             -11.4974
       192        2.0000           -0.4198224             -11.4239
       193        2.0000           -0.4188670             -11.3980
       194        2.0000           -0.4180582             -11.3759
       195        2.0000           -0.4161301             -11.3235
       196        2.0000           -0.4144360             -11.2774
       197        2.0000           -0.4136322             -11.2555
       198        2.0000           -0.4123560             -11.2208
       199        2.0000           -0.4097600             -11.1501
       200        2.0000           -0.4071510             -11.0791
       201        2.0000           -0.4026731             -10.9573
       202        2.0000           -0.3940511             -10.7227
       203        2.0000           -0.3748839             -10.2011 (HOMO)
       204                         -0.3162684              -8.6061 (LUMO)
       205                         -0.2958475              -8.0504
       206                         -0.2457999              -6.6886
       207                         -0.2418582              -6.5813
       208                         -0.2375710              -6.4646
       209                         -0.2347983              -6.3892
       210                         -0.2338244              -6.3627
       211                         -0.2075949              -5.6489
       212                         -0.1809115              -4.9229
       213                         -0.1488575              -4.0506
       214                         -0.1180061              -3.2111
       ...                                ...                  ...
       364                          0.6755731              18.3833
      -------------------------------------------------------------
                  HL-Gap            0.0586155 Eh            1.5950 eV
             Fermi-level           -0.3455762 Eh           -9.4036 eV

     #   Z          covCN         q      C6AA      α(0)
     1   6 C        2.840     0.144    24.851     8.170
     2   6 C        2.975    -0.035    28.868     8.813
     3   6 C        2.964    -0.002    28.080     8.692
     4   6 C        2.929    -0.077    29.913     8.969
     5   6 C        2.836     0.152    24.695     8.144
     6   6 C        2.921    -0.119    31.010     9.132
     7   6 C        3.741     0.108    18.875     6.199
     8   6 C        3.721     0.092    19.160     6.252
     9   6 C        3.746     0.106    18.908     6.203
    10   6 C        3.747     0.100    18.991     6.216
    11   6 C        3.739     0.086    19.227     6.257
    12   8 O        1.696    -0.339    19.697     5.992
    13   6 C        3.682     0.074    19.542     6.331
    14   8 O        1.651    -0.479    22.452     6.396
    15   8 O        1.651    -0.496    22.797     6.445
    16   8 O        1.698    -0.316    19.267     5.926
    17   8 O        1.702    -0.296    18.925     5.874
    18   6 C        3.676     0.072    19.596     6.342
    19   8 O        1.654    -0.468    22.213     6.362
    20   6 C        3.637     0.243    17.158     5.959
    21   8 O        1.696    -0.357    20.019     6.041
    22   6 C        3.746     0.115    18.771     6.180
    23   6 C        3.722     0.092    19.157     6.251
    24   6 C        3.722     0.087    19.242     6.264
    25   6 C        3.741     0.086    19.223     6.255
    26   8 O        1.654    -0.482    22.500     6.403
    27   8 O        1.698    -0.325    19.440     5.953
    28   8 O        1.653    -0.481    22.486     6.401
    29   6 C        3.744     0.067    19.528     6.304
    30   8 O        1.703    -0.274    18.537     5.813
    31   6 C        2.765     0.349    21.073     7.518
    32   8 O        0.857    -0.470    23.125     6.447
    33   6 C        2.719     0.353    21.006     7.503
    34   6 C        2.899    -0.094    30.351     9.033
    35   8 O        0.857    -0.474    23.214     6.460
    36   6 C        2.899     0.002    27.986     8.674
    37   6 C        2.900    -0.049    29.204     8.861
    38   6 C        2.892    -0.015    28.382     8.735
    39   6 C        3.804    -0.081    22.044     6.684
    40   6 C        3.725     0.120    18.726     6.179
    41   6 C        2.895    -0.073    29.823     8.954
    42   8 O        1.652    -0.501    22.905     6.461
    43   6 C        2.897    -0.044    29.097     8.844
    44   6 C        2.897    -0.067    29.675     8.932
    45   6 C        2.894    -0.044    29.086     8.842
    46   6 C        3.805    -0.064    21.726     6.636
    47   6 C        3.801    -0.057    21.600     6.617
    48   6 C        3.801    -0.066    21.767     6.643
    49   6 C        3.799    -0.053    21.527     6.606
    50   6 C        3.751    -0.117    22.805     6.810
    51   8 O        1.656    -0.443    21.708     6.290
    52   8 O        1.657    -0.433    21.501     6.260
    53   6 C        3.640     0.234    17.270     5.976
    54   6 C        3.722     0.090    19.198     6.258
    55   6 C        3.725     0.099    19.047     6.232
    56   6 C        3.724     0.081    19.330     6.278
    57   6 C        3.746     0.100    18.991     6.216
    58   8 O        1.695    -0.370    20.268     6.078
    59   6 C        3.673     0.075    19.554     6.337
    60   8 O        1.653    -0.485    22.578     6.414
    61   8 O        1.654    -0.456    21.967     6.327
    62   8 O        1.653    -0.464    22.124     6.350
    63   8 O        1.651    -0.474    22.343     6.381
    64   6 C        2.974    -0.035    28.858     8.812
    65   6 C        2.927    -0.027    28.686     8.783
    66   6 C        2.927    -0.039    28.969     8.827
    67   6 C        2.972     0.037    27.172     8.550
    68   6 C        2.928    -0.038    28.945     8.823
    69   6 C        2.927    -0.025    28.634     8.776
    70   6 C        3.807    -0.077    21.960     6.671
    71   6 C        3.801    -0.061    21.667     6.627
    72   6 C        3.799    -0.060    21.651     6.625
    73   6 C        3.751    -0.109    22.655     6.788
    74   1 H        0.926     0.077     2.007     2.215
    75   1 H        0.926     0.066     2.132     2.283
    76   1 H        0.924     0.033     2.538     2.491
    77   1 H        0.923     0.064     2.158     2.297
    78   1 H        0.924     0.028     2.613     2.528
    79   1 H        0.923     0.091     1.871     2.139
    80   1 H        0.924     0.048     2.341     2.393
    81   1 H        0.924     0.064     2.152     2.294
    82   1 H        0.924     0.026     2.647     2.544
    83   1 H        0.801     0.319     0.667     1.283
    84   1 H        0.802     0.336     0.622     1.239
    85   1 H        0.924     0.051     2.313     2.379
    86   1 H        0.924     0.066     2.129     2.282
    87   1 H        0.803     0.347     0.596     1.213
    88   1 H        0.924     0.015     2.804     2.619
    89   1 H        0.923     0.025     2.660     2.550
    90   1 H        0.923     0.050     2.319     2.382
    91   1 H        0.923     0.052     2.290     2.366
    92   1 H        0.924     0.094     1.844     2.124
    93   1 H        0.804     0.361     0.563     1.179
    94   1 H        0.803     0.369     0.546     1.161
    95   1 H        0.924     0.100     1.789     2.092
    96   1 H        0.924     0.084     1.942     2.179
    97   1 H        0.926     0.087     1.909     2.161
    98   1 H        0.926     0.072     2.063     2.246
    99   1 H        0.926     0.077     2.010     2.217
   100   1 H        0.926     0.063     2.164     2.300
   101   1 H        0.924     0.084     1.940     2.178
   102   1 H        0.924     0.095     1.834     2.118
   103   1 H        0.923     0.022     2.706     2.573
   104   1 H        0.926     0.064     2.157     2.296
   105   1 H        0.804     0.340     0.611     1.228
   106   1 H        0.926     0.038     2.479     2.462
   107   1 H        0.926     0.059     2.211     2.325
   108   1 H        0.926     0.036     2.496     2.471
   109   1 H        0.924     0.035     2.520     2.482
   110   1 H        0.924     0.040     2.443     2.444
   111   1 H        0.924     0.035     2.517     2.481
   112   1 H        0.924     0.030     2.581     2.512
   113   1 H        0.924     0.041     2.442     2.444
   114   1 H        0.924     0.026     2.643     2.543
   115   1 H        0.924     0.029     2.594     2.519
   116   1 H        0.924     0.028     2.617     2.530
   117   1 H        0.924     0.034     2.525     2.485
   118   1 H        0.924     0.055     2.257     2.349
   119   1 H        0.924     0.030     2.584     2.514
   120   1 H        0.804     0.364     0.556     1.171
   121   1 H        0.804     0.361     0.563     1.179
   122   1 H        0.923     0.015     2.807     2.620
   123   1 H        0.923     0.050     2.317     2.380
   124   1 H        0.923     0.053     2.283     2.363
   125   1 H        0.923     0.048     2.349     2.397
   126   1 H        0.923     0.010     2.884     2.656
   127   1 H        0.923     0.031     2.575     2.509
   128   1 H        0.924     0.072     2.061     2.245
   129   1 H        0.803     0.360     0.565     1.180
   130   1 H        0.804     0.356     0.575     1.191
   131   1 H        0.804     0.354     0.579     1.195
   132   1 H        0.802     0.343     0.604     1.221
   133   1 H        0.926     0.062     2.179     2.308
   134   1 H        0.926     0.068     2.108     2.271
   135   1 H        0.926     0.075     2.027     2.226
   136   1 H        0.926     0.056     2.245     2.343
   137   1 H        0.924     0.054     2.267     2.354
   138   1 H        0.924     0.062     2.176     2.307
   139   1 H        0.924     0.049     2.336     2.390
   140   1 H        0.924     0.040     2.445     2.446
   141   1 H        0.924     0.030     2.593     2.518
   142   1 H        0.924     0.035     2.521     2.483
   143   1 H        0.924     0.036     2.499     2.472
   144   1 H        0.924     0.027     2.635     2.538
   145   1 H        0.924     0.045     2.384     2.414

 Mol. C6AA /au·bohr⁶  :     199479.487035
 Mol. C8AA /au·bohr⁸  :    4518510.976622
 Mol. α(0) /au        :        670.145886


Wiberg/Mayer (AO) data.
largest (>0.10) Wiberg bond orders for each atom

 ---------------------------------------------------------------------------
     #   Z sym  total        # sym  WBO       # sym  WBO       # sym  WBO
 ---------------------------------------------------------------------------
     1   6 C    3.942 --     6 C    1.389     2 C    1.337    51 O    1.070
     2   6 C    3.974 --     3 C    1.390     1 C    1.337     7 C    0.991
     3   6 C    3.986 --     4 C    1.429     2 C    1.390    13 C    1.001
     4   6 C    3.982 --     3 C    1.429     5 C    1.361    74 H    0.963
     5   6 C    3.944 --     6 C    1.377     4 C    1.361    52 O    1.078
     6   6 C    3.975 --     1 C    1.389     5 C    1.377    75 H    0.960
     7   6 C    3.945 --     2 C    0.991    12 O    0.955     8 C    0.953
                            76 H    0.951
     8   6 C    3.947 --    15 O    0.986     9 C    0.966    77 H    0.954
                             7 C    0.953
     9   6 C    3.931 --    10 C    0.969     8 C    0.966    78 H    0.953
                            17 O    0.939
    10   6 C    3.934 --     9 C    0.969    16 O    0.964    11 C    0.959
                            79 H    0.948
    11   6 C    3.946 --    18 C    0.983    12 O    0.969    10 C    0.959
                            80 H    0.947
    12   8 O    2.061 --    11 C    0.969     7 C    0.955
    13   6 C    3.958 --     3 C    1.001    14 O    0.989    81 H    0.968
                            82 H    0.955
    14   8 O    1.936 --    13 C    0.989    83 H    0.851
    15   8 O    1.938 --     8 C    0.986    84 H    0.828
    16   8 O    2.101 --    20 C    0.983    10 C    0.964
    17   8 O    2.264 --    33 C    1.083     9 C    0.939    35 O    0.148
    18   6 C    3.960 --    19 O    1.011    11 C    0.983    86 H    0.966
                            85 H    0.966
    19   8 O    1.940 --    18 C    1.011    87 H    0.857
    20   6 C    3.925 --    16 O    0.983    25 C    0.953    21 O    0.953
                            88 H    0.938
    21   8 O    2.060 --    20 C    0.953    22 C    0.953
    22   6 C    3.943 --    29 C    0.982    23 C    0.969    21 O    0.953
                            89 H    0.952
    23   6 C    3.968 --    28 O    1.008    22 C    0.969    24 C    0.968
                            90 H    0.956
    24   6 C    3.960 --    26 O    0.999    23 C    0.968    25 C    0.962
                            91 H    0.952
    25   6 C    3.935 --    27 O    0.965    24 C    0.962    20 C    0.953
                            92 H    0.952
    26   8 O    1.932 --    24 C    0.999    93 H    0.852
    27   8 O    2.081 --    53 C    0.977    25 C    0.965
    28   8 O    1.922 --    23 C    1.008    94 H    0.842
    29   6 C    3.926 --    22 C    0.982    95 H    0.962    30 O    0.962
                            96 H    0.959
    30   8 O    2.282 --    31 C    1.093    29 C    0.962    32 O    0.145
    31   6 C    3.895 --    32 O    1.656    30 O    1.093    64 C    1.039
    32   8 O    1.990 --    31 C    1.656    30 O    0.145
    33   6 C    3.899 --    35 O    1.629    17 O    1.083    34 C    1.077
    34   6 C    3.969 --    36 C    1.722    33 C    1.077    97 H    0.956
    35   8 O    1.995 --    33 C    1.629    17 O    0.148
    36   6 C    3.972 --    34 C    1.722    37 C    1.143    98 H    0.954
    37   6 C    3.984 --    38 C    1.788    36 C    1.143    99 H    0.952
    38   6 C    3.973 --    37 C    1.788    39 C    1.042   100 H    0.959
    39   6 C    3.983 --    38 C    1.042    40 C    0.967   101 H    0.965
                           102 H    0.936
    40   6 C    3.953 --    41 C    1.005    42 O    0.971    39 C    0.967
                           103 H    0.960
    41   6 C    3.974 --    43 C    1.831    40 C    1.005   104 H    0.958
                            45 C    0.130
    42   8 O    1.913 --    40 C    0.971   105 H    0.869
    43   6 C    3.990 --    41 C    1.831    44 C    1.123   106 H    0.961
    44   6 C    3.987 --    45 C    1.824    43 C    1.123   107 H    0.946
    45   6 C    3.981 --    44 C    1.824    46 C    1.032   108 H    0.963
                            41 C    0.130
    46   6 C    3.994 --    45 C    1.032    47 C    0.996   109 H    0.970
                           110 H    0.939
    47   6 C    3.992 --    48 C    1.007    46 C    0.996   111 H    0.977
                           112 H    0.977
    48   6 C    3.994 --    49 C    1.007    47 C    1.007   114 H    0.977
                           113 H    0.970
    49   6 C    3.997 --    50 C    1.021    48 C    1.007   116 H    0.978
                           115 H    0.978
    50   6 C    3.994 --    49 C    1.021   119 H    0.988   117 H    0.987
                           118 H    0.980
    51   8 O    2.082 --     1 C    1.070   120 H    0.847
    52   8 O    2.088 --     5 C    1.078   121 H    0.851
    53   6 C    3.916 --    27 O    0.977    54 C    0.952    58 O    0.949
                           122 H    0.945
    54   6 C    3.960 --    62 O    1.003    55 C    0.965   123 H    0.957
                            53 C    0.952
    55   6 C    3.968 --    61 O    1.015    54 C    0.965    56 C    0.964
                           124 H    0.952
    56   6 C    3.966 --    60 O    1.005    57 C    0.965    55 C    0.964
                           125 H    0.951
    57   6 C    3.936 --    59 C    0.982    56 C    0.965    58 O    0.948
                           126 H    0.945
    58   8 O    2.060 --    53 C    0.949    57 C    0.948
    59   6 C    3.961 --    63 O    1.005    57 C    0.982   127 H    0.968
                           128 H    0.961
    60   8 O    1.922 --    56 C    1.005   129 H    0.832
    61   8 O    1.956 --    55 C    1.015   130 H    0.856
    62   8 O    1.953 --    54 C    1.003   131 H    0.856
    63   8 O    1.945 --    59 C    1.005   132 H    0.836
    64   6 C    3.981 --    69 C    1.367    65 C    1.362    31 C    1.039
    65   6 C    3.988 --    66 C    1.472    64 C    1.362   133 H    0.964
                            68 C    0.100
    66   6 C    3.988 --    65 C    1.472    67 C    1.391   134 H    0.965
    67   6 C    3.982 --    68 C    1.394    66 C    1.391    70 C    1.018
    68   6 C    3.987 --    69 C    1.466    67 C    1.394   135 H    0.959
                            65 C    0.100
    69   6 C    3.988 --    68 C    1.466    64 C    1.367   136 H    0.962
    70   6 C    3.992 --    67 C    1.018    71 C    0.986   137 H    0.973
                           138 H    0.963
    71   6 C    3.991 --    72 C    1.008    70 C    0.986   140 H    0.976
                           139 H    0.974
    72   6 C    3.996 --    73 C    1.021    71 C    1.008   142 H    0.976
                           141 H    0.969
    73   6 C    3.996 --    72 C    1.021   144 H    0.987   145 H    0.986
                           143 H    0.986
    74   1 H    0.994 --     4 C    0.963
    75   1 H    0.995 --     6 C    0.960
    76   1 H    0.999 --     7 C    0.951
    77   1 H    0.996 --     8 C    0.954
    78   1 H    0.999 --     9 C    0.953
    79   1 H    0.991 --    10 C    0.948
    80   1 H    0.998 --    11 C    0.947
    81   1 H    0.995 --    13 C    0.968
    82   1 H    0.999 --    13 C    0.955
    83   1 H    0.898 --    14 O    0.851
    84   1 H    0.887 --    15 O    0.828
    85   1 H    0.997 --    18 C    0.966
    86   1 H    0.995 --    18 C    0.966
    87   1 H    0.880 --    19 O    0.857
    88   1 H    1.000 --    20 C    0.938
    89   1 H    0.999 --    22 C    0.952
    90   1 H    0.997 --    23 C    0.956
    91   1 H    0.997 --    24 C    0.952
    92   1 H    0.991 --    25 C    0.952
    93   1 H    0.869 --    26 O    0.852
    94   1 H    0.864 --    28 O    0.842
    95   1 H    0.990 --    29 C    0.962
    96   1 H    0.992 --    29 C    0.959
    97   1 H    0.992 --    34 C    0.956
    98   1 H    0.995 --    36 C    0.954
    99   1 H    0.994 --    37 C    0.952
   100   1 H    0.996 --    38 C    0.959
   101   1 H    0.992 --    39 C    0.965
   102   1 H    0.981 --    39 C    0.936
   103   1 H    0.999 --    40 C    0.960
   104   1 H    0.996 --    41 C    0.958
   105   1 H    0.884 --    42 O    0.869
   106   1 H    0.998 --    43 C    0.961
   107   1 H    0.997 --    44 C    0.946
   108   1 H    0.999 --    45 C    0.963
   109   1 H    0.999 --    46 C    0.970
   110   1 H    0.992 --    46 C    0.939
   111   1 H    0.998 --    47 C    0.977
   112   1 H    0.999 --    47 C    0.977
   113   1 H    0.998 --    48 C    0.970
   114   1 H    0.999 --    48 C    0.977
   115   1 H    0.999 --    49 C    0.978
   116   1 H    0.999 --    49 C    0.978
   117   1 H    0.998 --    50 C    0.987
   118   1 H    0.997 --    50 C    0.980
   119   1 H    0.999 --    50 C    0.988
   120   1 H    0.867 --    51 O    0.847
   121   1 H    0.869 --    52 O    0.851
   122   1 H    1.000 --    53 C    0.945
   123   1 H    0.997 --    54 C    0.957
   124   1 H    0.997 --    55 C    0.952
   125   1 H    0.997 --    56 C    0.951
   126   1 H    1.000 --    57 C    0.945
   127   1 H    0.999 --    59 C    0.968
   128   1 H    0.994 --    59 C    0.961
   129   1 H    0.870 --    60 O    0.832
   130   1 H    0.873 --    61 O    0.856
   131   1 H    0.874 --    62 O    0.856
   132   1 H    0.882 --    63 O    0.836
   133   1 H    0.996 --    65 C    0.964
   134   1 H    0.995 --    66 C    0.965
   135   1 H    0.994 --    68 C    0.959
   136   1 H    0.997 --    69 C    0.962
   137   1 H    0.997 --    70 C    0.973
   138   1 H    0.994 --    70 C    0.963
   139   1 H    0.996 --    71 C    0.974
   140   1 H    0.998 --    71 C    0.976
   141   1 H    0.999 --    72 C    0.969
   142   1 H    0.999 --    72 C    0.976
   143   1 H    0.999 --    73 C    0.986
   144   1 H    0.999 --    73 C    0.987
   145   1 H    0.998 --    73 C    0.986
 ---------------------------------------------------------------------------

Topologies differ in total number of bonds
Writing topology from bond orders to xtbtopo.mol

molecular dipole:
                 x           y           z       tot (Debye)
 q only:       -0.159       1.341       2.358
   full:       -0.436       1.024       2.294       6.481
molecular quadrupole (traceless):
                xx          xy          yy          xz          yz          zz
 q only:      -11.956       4.285       7.972     -27.355       3.734       3.984
  q+dip:      -26.379       2.210      -0.076     -38.277       4.214      26.454
   full:      -26.696       0.549       1.691     -34.130       3.949      25.005


           -------------------------------------------------
          | TOTAL ENERGY             -233.523144798988 Eh   |
          | GRADIENT NORM               0.124289199521 Eh/α |
          | HOMO-LUMO GAP               1.595009129374 eV   |
           -------------------------------------------------

------------------------------------------------------------------------
 * finished run on 2026/06/19 at 18:52:25.199     
------------------------------------------------------------------------
 total:
 * wall-time:     0 d,  0 h,  0 min,  0.315 sec
 *  cpu-time:     0 d,  0 h,  0 min,  4.855 sec
 * ratio c/w:    15.410 speedup
 SCF:
 * wall-time:     0 d,  0 h,  0 min,  0.260 sec
 *  cpu-time:     0 d,  0 h,  0 min,  4.116 sec
 * ratio c/w:    15.850 speedup

normal termination of xtb
