      -----------------------------------------------------------      
     |                   =====================                   |     
     |                           x T B                           |     
     |                   =====================                   |     
     |                         S. Grimme                         |     
     |          Mulliken Center for Theoretical Chemistry        |     
     |                    University of Bonn                     |     
      -----------------------------------------------------------      

   * xtb version 6.7.1 (edcfbbe) compiled by 'albert@albert-system' on 2024-07-22

   xtb is free software: you can redistribute it and/or modify it under
   the terms of the GNU Lesser General Public License as published by
   the Free Software Foundation, either version 3 of the License, or
   (at your option) any later version.
   
   xtb is distributed in the hope that it will be useful,
   but WITHOUT ANY WARRANTY; without even the implied warranty of
   MERCHANTABILITY or FITNESS FOR A PARTICULAR PURPOSE.  See the
   GNU Lesser General Public License for more details.
   
   Cite this work as:
   * C. Bannwarth, E. Caldeweyher, S. Ehlert, A. Hansen, P. Pracht,
     J. Seibert, S. Spicher, S. Grimme, WIREs Comput. Mol. Sci., 2020, 11,
     e01493. DOI: 10.1002/wcms.1493
   
   for GFN2-xTB:
   * C. Bannwarth, S. Ehlert and S. Grimme., J. Chem. Theory Comput., 2019,
     15, 1652-1671. DOI: 10.1021/acs.jctc.8b01176
   for GFN1-xTB:
   * S. Grimme, C. Bannwarth, P. Shushkov, J. Chem. Theory Comput., 2017,
     13, 1989-2009. DOI: 10.1021/acs.jctc.7b00118
   for GFN0-xTB:
   * P. Pracht, E. Caldeweyher, S. Ehlert, S. Grimme, ChemRxiv, 2019, preprint.
     DOI: 10.26434/chemrxiv.8326202.v1
   for GFN-FF:
   * S. Spicher and S. Grimme, Angew. Chem. Int. Ed., 2020, 59, 15665-15673.
     DOI: 10.1002/anie.202004239
   
   for ALPB and GBSA implicit solvation:
   * S. Ehlert, M. Stahn, S. Spicher, S. Grimme, J. Chem. Theory Comput.,
     2021, 17, 4250-4261. DOI: 10.1021/acs.jctc.1c00471
   
   for ddCOSMO and CPCM-X implicit solvation:
   * M. Stahn, S. Ehlert, S. Grimme, J. Phys. Chem. A,
     2023, XX, XXXX-XXXX. DOI: 10.1021/acs.jpca.3c04382
   
   for DFT-D4:
   * E. Caldeweyher, C. Bannwarth and S. Grimme, J. Chem. Phys., 2017,
     147, 034112. DOI: 10.1063/1.4993215
   * E. Caldeweyher, S. Ehlert, A. Hansen, H. Neugebauer, S. Spicher,
     C. Bannwarth and S. Grimme, J. Chem. Phys., 2019, 150, 154122.
     DOI: 10.1063/1.5090222
   * E. Caldeweyher, J.-M. Mewes, S. Ehlert and S. Grimme, Phys. Chem. Chem. Phys.
     2020, 22, 8499-8512. DOI: 10.1039/D0CP00502A
   
   for sTDA-xTB:
   * S. Grimme and C. Bannwarth, J. Chem. Phys., 2016, 145, 054103.
     DOI: 10.1063/1.4959605
   
   in the mass-spec context:
   * V. Asgeirsson, C. Bauer and S. Grimme, Chem. Sci., 2017, 8, 4879.
     DOI: 10.1039/c7sc00601b
   * J. Koopman and S. Grimme, ACS Omega 2019, 4, 12, 15120-15133.
     DOI: 10.1021/acsomega.9b02011
   
   for metadynamics refer to:
   * S. Grimme, J. Chem. Theory Comput., 2019, 155, 2847-2862
     DOI: 10.1021/acs.jctc.9b00143
   
   for SPH calculations refer to:
   * S. Spicher and S. Grimme, J. Chem. Theory Comput., 2021, 17, 1701-1714
     DOI: 10.1021/acs.jctc.0c01306
   
   for ONIOM refer to:
   * C. Plett, A. Katbashev, S. Ehlert, S. Grimme, M. Bursch,
     Phys. Chem. Chem. Phys., 2023, 25, 17860-17868. DOI: 10.1039/D3CP02178E
   
   for DIPRO refer to:
   * J. Kohn, N. Gildemeister, S. Grimme, D. Fazzi, A. Hansen,
     J. Chem. Phys., 2023, just accepted.
   
   for PTB refer to:
   * S. Grimme, M. Mueller, A. Hansen, J. Chem. Phys., 2023, 158, 124111.
     DOI: 10.1063/5.0137838
   
   with help from (in alphabetical order)
   P. Atkinson, C. Bannwarth, F. Bohle, G. Brandenburg, E. Caldeweyher
   M. Checinski, S. Dohm, S. Ehlert, S. Ehrlich, I. Gerasimov, C. Hölzer
   A. Katbashev, J. Kohn, J. Koopman, C. Lavigne, S. Lehtola, F. März, M. Müller,
   F. Musil, H. Neugebauer, J. Pisarek, C. Plett, P. Pracht, F. Pultar,
   J. Seibert, P. Shushkov, S. Spicher, M. Stahn, M. Steiner, T. Strunk,
   J. Stückrath, T. Rose, and J. Unsleber
   
 * started run on 2026/06/19 at 18:52:32.479     
   ID    Z sym.   atoms
    1    6 C      1-11, 13, 18, 20, 22-25, 29, 31, 33, 34, 36-41, 43-50,
                  53-57, 59, 64-75
    2    8 O      12, 14-17, 19, 21, 26-28, 30, 32, 35, 42, 51, 52, 58, 60-63
    3    1 H      76-141

           -------------------------------------------------
          |                Calculation Setup                |
           -------------------------------------------------

          program call               : xtb PAPU-0078/conf02.xyz --gfn 2 --alpb octanol --chrg 0 --uhf 0 --namespace PAPU-0078/conf02_octanol
          hostname                   : cpu10
          calculation namespace      : PAPU-0078/conf02_octanol
          coordinate file            : PAPU-0078/conf02.xyz
          omp threads                :                    16


           -------------------------------------------------
          |                 G F N 2 - x T B                 |
           -------------------------------------------------

        Reference                      10.1021/acs.jctc.8b01176
      * Hamiltonian:
        H0-scaling (s, p, d)           1.850000    2.230000    2.230000
        zeta-weighting                 0.500000
      * Dispersion:
        s8                             2.700000
        a1                             0.520000
        a2                             5.000000
        s9                             5.000000
      * Repulsion:
        kExp                           1.500000    1.000000
        rExp                           1.000000
      * Coulomb:
        alpha                          2.000000
        third order                    shell-resolved
        anisotropic                    true
        a3                             3.000000
        a5                             4.000000
        cn-shift                       1.200000
        cn-exp                         4.000000
        max-rad                        5.000000

      * Solvation model:               ALPB
        Solvent                        octanol
        Parameter file                 internal GFN2-xTB/ALPB
        Dielectric constant                9.8629E+00
        Reference state                gsolv [1 M gas/solution]
        Free energy shift                  2.3397E-03 Eh       1.4682E+00 kcal/mol
        Temperature                        2.9815E+02 K
        Density                            8.3000E-01 kg/L
        Solvent mass                       1.3023E+02 g/mol
        Interaction kernel             P16
        Born radius scaling (c1)           1.5898E+00
        Born radii integrator          GBOBC
        Born offset                        0.0000E+00 a0       0.0000E+00 AA
        H-bond correction              true
        Ion screening                  false
        Surface tension                    1.0000E-05 Eh       1.5569E+01 dyn/cm
        Grid points                               230 per atom

          ...................................................
          :                      SETUP                      :
          :.................................................:
          :  # basis functions                 366          :
          :  # atomic orbitals                 366          :
          :  # shells                          216          :
          :  # electrons                       408          :
          :  max. iterations                   250          :
          :  Hamiltonian                  GFN2-xTB          :
          :  restarted?                      false          :
          :  GBSA solvation                   true          :
          :  PC potential                    false          :
          :  electronic temp.          300.0000000     K    :
          :  accuracy                    1.0000000          :
          :  -> integral cutoff          0.2500000E+02      :
          :  -> integral neglect         0.1000000E-07      :
          :  -> SCF convergence          0.1000000E-05 Eh   :
          :  -> wf. convergence          0.1000000E-03 e    :
          :  Broyden damping             0.4000000          :
          :  net charge                          0          :
          :  unpaired electrons                  0          :
          ...................................................

 iter      E             dE          RMSdq      gap      omega  full diag
   1   -237.0338199 -0.237034E+03  0.435E+00    2.30       0.0  T
   2   -237.2406074 -0.206787E+00  0.241E+00    1.79       1.0  T
   3   -237.2113564  0.292510E-01  0.104E+00    1.72       1.0  T
   4   -237.2606242 -0.492678E-01  0.315E-01    1.51       1.0  T
   5   -237.2698995 -0.927536E-02  0.124E-01    1.49       1.0  T
   6   -237.2707732 -0.873675E-03  0.600E-02    1.51       1.0  T
   7   -237.2708842 -0.110993E-03  0.276E-02    1.52       1.0  T
   8   -237.2709192 -0.349659E-04  0.121E-02    1.52       1.0  T
   9   -237.2709252 -0.599302E-05  0.577E-03    1.52       1.5  T
  10   -237.2709275 -0.231053E-05  0.258E-03    1.52       3.3  T
  11   -237.2709277 -0.199800E-06  0.137E-03    1.52       6.1  T
  12   -237.2709277 -0.476796E-07  0.596E-04    1.52      14.1  T
  13   -237.2709277 -0.174368E-07  0.299E-04    1.52      28.1  T

   *** convergence criteria satisfied after 13 iterations ***

         #    Occupation            Energy/Eh            Energy/eV
      -------------------------------------------------------------
         1        2.0000           -0.7765358             -21.1306
       ...           ...                  ...                  ...
       198        2.0000           -0.4080696             -11.1041
       199        2.0000           -0.4061482             -11.0519
       200        2.0000           -0.4045116             -11.0073
       201        2.0000           -0.4038805             -10.9901
       202        2.0000           -0.3903304             -10.6214
       203        2.0000           -0.3836502             -10.4397
       204        2.0000           -0.3687457             -10.0341 (HOMO)
       205                         -0.3130097              -8.5174 (LUMO)
       206                         -0.3028753              -8.2417
       207                         -0.2671000              -7.2682
       208                         -0.2473385              -6.7304
       209                         -0.2380761              -6.4784
       ...                                ...                  ...
       366                          0.8500957              23.1323
      -------------------------------------------------------------
                  HL-Gap            0.0557360 Eh            1.5167 eV
             Fermi-level           -0.3408777 Eh           -9.2758 eV

 SCC (total)                   0 d,  0 h,  0 min,  0.261 sec
 SCC setup                      ...        0 min,  0.003 sec (  1.258%)
 Dispersion                     ...        0 min,  0.004 sec (  1.618%)
 classical contributions        ...        0 min,  0.000 sec (  0.082%)
 integral evaluation            ...        0 min,  0.013 sec (  4.809%)
 iterations                     ...        0 min,  0.204 sec ( 78.354%)
 molecular gradient             ...        0 min,  0.035 sec ( 13.550%)
 printout                       ...        0 min,  0.001 sec (  0.310%)

         :::::::::::::::::::::::::::::::::::::::::::::::::::::
         ::                     SUMMARY                     ::
         :::::::::::::::::::::::::::::::::::::::::::::::::::::
         :: total energy            -234.682740185840 Eh    ::
         :: total w/o Gsasa/hb      -234.609071008152 Eh    ::
         :: gradient norm              0.138972071319 Eh/a0 ::
         :: HOMO-LUMO gap              1.516653247515 eV    ::
         ::.................................................::
         :: SCC energy              -237.255727978142 Eh    ::
         :: -> isotropic ES            0.531083934290 Eh    ::
         :: -> anisotropic ES         -0.027016334113 Eh    ::
         :: -> anisotropic XC          0.020258820226 Eh    ::
         :: -> dispersion             -0.202640558524 Eh    ::
         :: -> Gsolv                  -0.103885595411 Eh    ::
         ::    -> Gelec               -0.030216417723 Eh    ::
         ::    -> Gsasa               -0.030653588336 Eh    ::
         ::    -> Ghb                 -0.045355258728 Eh    ::
         ::    -> Gshift               0.002339669376 Eh    ::
         :: repulsion energy           2.572987792302 Eh    ::
         :: add. restraining           0.000000000000 Eh    ::
         :: total charge              -0.000000000000 e     ::
         :::::::::::::::::::::::::::::::::::::::::::::::::::::

           -------------------------------------------------
          |                Property Printout                |
           -------------------------------------------------

    * Orbital Energies and Occupations

         #    Occupation            Energy/Eh            Energy/eV
      -------------------------------------------------------------
         1        2.0000           -0.7765358             -21.1306
       ...           ...                  ...                  ...
       192        2.0000           -0.4238985             -11.5349
       193        2.0000           -0.4184144             -11.3856
       194        2.0000           -0.4160605             -11.3216
       195        2.0000           -0.4146482             -11.2832
       196        2.0000           -0.4136883             -11.2570
       197        2.0000           -0.4116383             -11.2012
       198        2.0000           -0.4080696             -11.1041
       199        2.0000           -0.4061482             -11.0519
       200        2.0000           -0.4045116             -11.0073
       201        2.0000           -0.4038805             -10.9901
       202        2.0000           -0.3903304             -10.6214
       203        2.0000           -0.3836502             -10.4397
       204        2.0000           -0.3687457             -10.0341 (HOMO)
       205                         -0.3130097              -8.5174 (LUMO)
       206                         -0.3028753              -8.2417
       207                         -0.2671000              -7.2682
       208                         -0.2473385              -6.7304
       209                         -0.2380761              -6.4784
       210                         -0.2376568              -6.4670
       211                         -0.2302775              -6.2662
       212                         -0.2276133              -6.1937
       213                         -0.2072813              -5.6404
       214                         -0.1968156              -5.3556
       215                         -0.1611210              -4.3843
       ...                                ...                  ...
       366                          0.8500957              23.1323
      -------------------------------------------------------------
                  HL-Gap            0.0557360 Eh            1.5167 eV
             Fermi-level           -0.3408777 Eh           -9.2758 eV

     #   Z          covCN         q      C6AA      α(0)
     1   6 C        2.842     0.142    24.900     8.178
     2   6 C        2.970    -0.053    29.320     8.882
     3   6 C        2.964    -0.006    28.161     8.704
     4   6 C        2.931    -0.075    29.882     8.965
     5   6 C        2.837     0.149    24.768     8.156
     6   6 C        2.921    -0.103    30.602     9.072
     7   6 C        3.744     0.100    18.999     6.218
     8   6 C        3.719     0.096    19.104     6.243
     9   6 C        3.747     0.103    18.949     6.209
    10   6 C        3.744     0.091    19.138     6.241
    11   6 C        3.740     0.098    19.035     6.225
    12   8 O        1.694    -0.353    19.955     6.031
    13   6 C        3.683     0.077    19.498     6.323
    14   8 O        1.652    -0.485    22.577     6.414
    15   8 O        1.651    -0.496    22.800     6.446
    16   8 O        1.697    -0.313    19.217     5.919
    17   8 O        1.702    -0.295    18.900     5.870
    18   6 C        3.677     0.069    19.638     6.349
    19   8 O        1.654    -0.468    22.214     6.362
    20   6 C        3.637     0.235    17.272     5.979
    21   8 O        1.696    -0.355    19.985     6.036
    22   6 C        3.745     0.108    18.880     6.198
    23   6 C        3.721     0.091    19.185     6.256
    24   6 C        3.722     0.089    19.212     6.260
    25   6 C        3.740     0.092    19.125     6.240
    26   8 O        1.654    -0.480    22.468     6.399
    27   8 O        1.698    -0.319    19.327     5.936
    28   8 O        1.653    -0.479    22.438     6.394
    29   6 C        3.735     0.064    19.586     6.316
    30   8 O        1.703    -0.260    18.311     5.777
    31   6 C        2.756     0.350    21.066     7.516
    32   8 O        0.857    -0.472    23.165     6.453
    33   6 C        2.720     0.358    20.927     7.489
    34   6 C        2.898    -0.089    30.219     9.013
    35   8 O        0.858    -0.490    23.572     6.509
    36   6 C        2.902     0.010    27.798     8.645
    37   6 C        2.901    -0.040    28.995     8.829
    38   6 C        2.896    -0.010    28.267     8.717
    39   6 C        3.807    -0.081    22.033     6.682
    40   6 C        3.729     0.123    18.672     6.169
    41   6 C        2.895    -0.062    29.550     8.913
    42   8 O        1.652    -0.502    22.943     6.466
    43   6 C        2.901    -0.034    28.838     8.805
    44   6 C        2.898    -0.053    29.315     8.877
    45   6 C        2.897    -0.042    29.043     8.836
    46   6 C        3.806    -0.061    21.669     6.627
    47   6 C        3.801    -0.055    21.559     6.611
    48   6 C        3.801    -0.065    21.741     6.639
    49   6 C        3.799    -0.050    21.480     6.599
    50   6 C        3.751    -0.119    22.846     6.817
    51   8 O        1.656    -0.430    21.441     6.251
    52   8 O        1.656    -0.431    21.452     6.253
    53   6 C        3.633     0.249    17.094     5.951
    54   6 C        3.720     0.091    19.190     6.257
    55   6 C        3.724     0.081    19.327     6.278
    56   6 C        3.722     0.071    19.502     6.307
    57   6 C        3.743     0.091    19.142     6.242
    58   8 O        1.695    -0.379    20.434     6.103
    59   6 C        3.673     0.070    19.633     6.350
    60   8 O        1.654    -0.462    22.083     6.344
    61   8 O        1.654    -0.474    22.339     6.380
    62   8 O        1.653    -0.479    22.444     6.395
    63   8 O        1.652    -0.488    22.637     6.423
    64   6 C        2.973    -0.030    28.742     8.794
    65   6 C        2.929    -0.022    28.548     8.762
    66   6 C        2.909    -0.038    28.945     8.822
    67   6 C        3.334     0.015    25.263     7.965
    68   6 C        3.333     0.006    25.485     8.003
    69   6 C        2.915    -0.036    28.885     8.813
    70   6 C        3.335     0.002    25.515     8.001
    71   6 C        3.333     0.001    25.590     8.019
    72   6 C        2.911    -0.031    28.774     8.796
    73   6 C        2.923    -0.031    28.768     8.796
    74   6 C        2.923    -0.031    28.777     8.797
    75   6 C        2.911    -0.034    28.858     8.809
    76   1 H        0.926     0.078     2.002     2.213
    77   1 H        0.926     0.078     2.003     2.213
    78   1 H        0.924     0.042     2.422     2.434
    79   1 H        0.923     0.051     2.311     2.377
    80   1 H        0.924     0.036     2.503     2.474
    81   1 H        0.924     0.097     1.817     2.108
    82   1 H        0.924     0.028     2.615     2.529
    83   1 H        0.924     0.058     2.222     2.331
    84   1 H        0.924     0.018     2.762     2.599
    85   1 H        0.802     0.326     0.648     1.265
    86   1 H        0.803     0.343     0.606     1.222
    87   1 H        0.924     0.049     2.339     2.392
    88   1 H        0.924     0.085     1.923     2.169
    89   1 H        0.803     0.347     0.596     1.212
    90   1 H        0.924     0.026     2.643     2.542
    91   1 H        0.923     0.034     2.525     2.485
    92   1 H        0.923     0.047     2.352     2.399
    93   1 H        0.923     0.040     2.454     2.450
    94   1 H        0.924     0.089     1.885     2.147
    95   1 H        0.804     0.360     0.565     1.181
    96   1 H        0.803     0.368     0.548     1.163
    97   1 H        0.924     0.107     1.719     2.051
    98   1 H        0.924     0.081     1.973     2.196
    99   1 H        0.926     0.086     1.921     2.167
   100   1 H        0.926     0.075     2.035     2.231
   101   1 H        0.926     0.071     2.072     2.251
   102   1 H        0.926     0.073     2.058     2.243
   103   1 H        0.924     0.068     2.111     2.272
   104   1 H        0.924     0.066     2.130     2.282
   105   1 H        0.923     0.032     2.556     2.500
   106   1 H        0.926     0.048     2.345     2.395
   107   1 H        0.804     0.340     0.613     1.230
   108   1 H        0.926     0.055     2.258     2.350
   109   1 H        0.926     0.042     2.419     2.432
   110   1 H        0.926     0.048     2.345     2.395
   111   1 H        0.924     0.030     2.587     2.516
   112   1 H        0.924     0.044     2.400     2.423
   113   1 H        0.924     0.033     2.541     2.493
   114   1 H        0.924     0.025     2.660     2.551
   115   1 H        0.924     0.035     2.520     2.483
   116   1 H        0.924     0.035     2.521     2.483
   117   1 H        0.924     0.031     2.567     2.505
   118   1 H        0.924     0.016     2.790     2.612
   119   1 H        0.924     0.053     2.282     2.362
   120   1 H        0.924     0.037     2.488     2.467
   121   1 H        0.924     0.037     2.487     2.466
   122   1 H        0.803     0.340     0.613     1.230
   123   1 H        0.804     0.363     0.559     1.175
   124   1 H        0.924     0.013     2.846     2.638
   125   1 H        0.924     0.035     2.517     2.481
   126   1 H        0.923     0.064     2.155     2.295
   127   1 H        0.923     0.079     1.991     2.207
   128   1 H        0.924     0.050     2.314     2.379
   129   1 H        0.924     0.057     2.232     2.336
   130   1 H        0.924     0.077     2.012     2.218
   131   1 H        0.803     0.332     0.632     1.249
   132   1 H        0.803     0.355     0.576     1.193
   133   1 H        0.803     0.368     0.548     1.163
   134   1 H        0.802     0.320     0.663     1.279
   135   1 H        0.926     0.070     2.085     2.258
   136   1 H        0.926     0.071     2.078     2.254
   137   1 H        0.926     0.052     2.299     2.371
   138   1 H        0.926     0.056     2.242     2.342
   139   1 H        0.926     0.061     2.186     2.312
   140   1 H        0.926     0.059     2.211     2.325
   141   1 H        0.926     0.049     2.328     2.386

 Mol. C6AA /au·bohr⁶  :     201828.086676
 Mol. C8AA /au·bohr⁸  :    4657204.912839
 Mol. α(0) /au        :        678.068987


Wiberg/Mayer (AO) data.
largest (>0.10) Wiberg bond orders for each atom

 ---------------------------------------------------------------------------
     #   Z sym  total        # sym  WBO       # sym  WBO       # sym  WBO
 ---------------------------------------------------------------------------
     1   6 C    3.944 --     6 C    1.388     2 C    1.335    51 O    1.075
     2   6 C    3.969 --     3 C    1.386     1 C    1.335     7 C    0.990
     3   6 C    3.986 --     4 C    1.431     2 C    1.386    13 C    0.999
     4   6 C    3.982 --     3 C    1.431     5 C    1.359    76 H    0.963
     5   6 C    3.946 --     6 C    1.381     4 C    1.359    52 O    1.079
     6   6 C    3.977 --     1 C    1.388     5 C    1.381    77 H    0.961
     7   6 C    3.935 --     2 C    0.990     8 C    0.951    78 H    0.946
                            12 O    0.945
     8   6 C    3.951 --    15 O    0.988     9 C    0.967    79 H    0.957
                             7 C    0.951
     9   6 C    3.931 --     8 C    0.967    10 C    0.966    17 O    0.940
                            80 H    0.938
    10   6 C    3.936 --    16 O    0.967     9 C    0.966    11 C    0.962
                            81 H    0.944
    11   6 C    3.943 --    18 C    0.977    10 C    0.962    12 O    0.960
                            82 H    0.951
    12   8 O    2.073 --    11 C    0.960     7 C    0.945
    13   6 C    3.960 --     3 C    0.999    14 O    0.993    83 H    0.967
                            84 H    0.952
    14   8 O    1.930 --    13 C    0.993    85 H    0.848
    15   8 O    1.943 --     8 C    0.988    86 H    0.826
    16   8 O    2.101 --    20 C    0.989    10 C    0.967
    17   8 O    2.260 --    33 C    1.079     9 C    0.940    35 O    0.140
    18   6 C    3.955 --    19 O    1.013    11 C    0.977    87 H    0.963
                            88 H    0.958
    19   8 O    1.946 --    18 C    1.013    89 H    0.864
    20   6 C    3.924 --    16 O    0.989    25 C    0.954    21 O    0.948
                            90 H    0.932
    21   8 O    2.062 --    22 C    0.958    20 C    0.948
    22   6 C    3.943 --    29 C    0.984    23 C    0.966    21 O    0.958
                            91 H    0.947
    23   6 C    3.968 --    28 O    1.010    24 C    0.966    22 C    0.966
                            92 H    0.957
    24   6 C    3.962 --    26 O    1.000    23 C    0.966    25 C    0.962
                            93 H    0.951
    25   6 C    3.936 --    27 O    0.965    24 C    0.962    20 C    0.954
                            94 H    0.949
    26   8 O    1.934 --    24 C    1.000    95 H    0.851
    27   8 O    2.088 --    53 C    0.977    25 C    0.965
    28   8 O    1.925 --    23 C    1.010    96 H    0.842
    29   6 C    3.925 --    22 C    0.984    30 O    0.961    97 H    0.960
                            98 H    0.960
    30   8 O    2.301 --    31 C    1.108    29 C    0.961    32 O    0.151
    31   6 C    3.895 --    32 O    1.650    30 O    1.108    64 C    1.032
    32   8 O    1.979 --    31 C    1.650    30 O    0.151
    33   6 C    3.893 --    35 O    1.603    34 C    1.095    17 O    1.079
    34   6 C    3.966 --    36 C    1.697    33 C    1.095    99 H    0.959
                            38 C    0.105
    35   8 O    1.990 --    33 C    1.603    17 O    0.140
    36   6 C    3.970 --    34 C    1.697    37 C    1.166   100 H    0.953
    37   6 C    3.985 --    38 C    1.762    36 C    1.166   101 H    0.957
    38   6 C    3.970 --    37 C    1.762    39 C    1.048   102 H    0.962
                            34 C    0.105
    39   6 C    3.984 --    38 C    1.048   104 H    0.965   103 H    0.964
                            40 C    0.932
    40   6 C    3.943 --    41 C    1.012    42 O    0.981   105 H    0.957
                            39 C    0.932
    41   6 C    3.977 --    43 C    1.827    40 C    1.012   106 H    0.964
                            45 C    0.126
    42   8 O    1.919 --    40 C    0.981   107 H    0.869
    43   6 C    3.989 --    41 C    1.827    44 C    1.124   108 H    0.957
    44   6 C    3.988 --    45 C    1.829    43 C    1.124   109 H    0.962
    45   6 C    3.980 --    44 C    1.829    46 C    1.029   110 H    0.957
                            41 C    0.126
    46   6 C    3.996 --    45 C    1.029    47 C    0.985   111 H    0.971
                           112 H    0.966
    47   6 C    3.989 --    48 C    1.006    46 C    0.985   113 H    0.976
                           114 H    0.972
    48   6 C    3.995 --    49 C    1.007    47 C    1.006   116 H    0.976
                           115 H    0.974
    49   6 C    3.996 --    50 C    1.021    48 C    1.007   117 H    0.977
                           118 H    0.973
    50   6 C    3.994 --    49 C    1.021   120 H    0.987   121 H    0.987
                           119 H    0.980
    51   8 O    2.089 --     1 C    1.075   122 H    0.837
    52   8 O    2.086 --     5 C    1.079   123 H    0.850
    53   6 C    3.921 --    27 O    0.977    54 C    0.959    58 O    0.952
                           124 H    0.945
    54   6 C    3.965 --    62 O    1.002    53 C    0.959    55 C    0.958
                           125 H    0.957
    55   6 C    3.962 --    61 O    1.009    56 C    0.960    54 C    0.958
                           126 H    0.951
    56   6 C    3.957 --    60 O    1.004    57 C    0.964    55 C    0.960
                           127 H    0.957
    57   6 C    3.927 --    59 C    0.985    56 C    0.964    58 O    0.938
                           128 H    0.932
    58   8 O    2.061 --    53 C    0.952    57 C    0.938
    59   6 C    3.949 --    63 O    0.991    57 C    0.985   129 H    0.972
                           130 H    0.962
    60   8 O    1.963 --    56 C    1.004   131 H    0.868
    61   8 O    1.946 --    55 C    1.009   132 H    0.850
    62   8 O    1.929 --    54 C    1.002   133 H    0.843
    63   8 O    1.933 --    59 C    0.991   134 H    0.852
    64   6 C    3.963 --    65 C    1.415    69 C    1.303    31 C    1.032
    65   6 C    3.969 --    64 C    1.415    66 C    1.389   135 H    0.964
                            68 C    0.101
    66   6 C    3.974 --    67 C    1.459    65 C    1.389   136 H    0.965
    67   6 C    3.970 --    66 C    1.459    68 C    1.287    70 C    0.996
    68   6 C    3.976 --    69 C    1.498    67 C    1.287    71 C    0.989
                            65 C    0.101
    69   6 C    3.974 --    68 C    1.498    64 C    1.303   137 H    0.962
    70   6 C    3.972 --    72 C    1.472    71 C    1.291    67 C    0.996
                            74 C    0.107
    71   6 C    3.973 --    75 C    1.478    70 C    1.291    68 C    0.989
                            73 C    0.108
    72   6 C    3.973 --    70 C    1.472    73 C    1.375   138 H    0.967
    73   6 C    3.968 --    74 C    1.485    72 C    1.375   139 H    0.968
                            71 C    0.108
    74   6 C    3.967 --    73 C    1.485    75 C    1.372   140 H    0.968
                            70 C    0.107
    75   6 C    3.978 --    71 C    1.478    74 C    1.372   141 H    0.968
    76   1 H    0.993 --     4 C    0.963
    77   1 H    0.993 --     6 C    0.961
    78   1 H    0.998 --     7 C    0.946
    79   1 H    0.997 --     8 C    0.957
    80   1 H    0.998 --     9 C    0.938
    81   1 H    0.990 --    10 C    0.944
    82   1 H    0.999 --    11 C    0.951
    83   1 H    0.996 --    13 C    0.967
    84   1 H    0.999 --    13 C    0.952
    85   1 H    0.894 --    14 O    0.848
    86   1 H    0.882 --    15 O    0.826
    87   1 H    0.997 --    18 C    0.963
    88   1 H    0.992 --    18 C    0.958
    89   1 H    0.880 --    19 O    0.864
    90   1 H    0.999 --    20 C    0.932
    91   1 H    0.999 --    22 C    0.947
    92   1 H    0.998 --    23 C    0.957
    93   1 H    0.998 --    24 C    0.951
    94   1 H    0.991 --    25 C    0.949
    95   1 H    0.870 --    26 O    0.851
    96   1 H    0.864 --    28 O    0.842
    97   1 H    0.988 --    29 C    0.960
    98   1 H    0.992 --    29 C    0.960
    99   1 H    0.993 --    34 C    0.959
   100   1 H    0.994 --    36 C    0.953
   101   1 H    0.995 --    37 C    0.957
   102   1 H    0.995 --    38 C    0.962
   103   1 H    0.994 --    39 C    0.964
   104   1 H    0.992 --    39 C    0.965
   105   1 H    0.995 --    40 C    0.957
   106   1 H    0.997 --    41 C    0.964
   107   1 H    0.884 --    42 O    0.869
   108   1 H    0.997 --    43 C    0.957
   109   1 H    0.998 --    44 C    0.962
   110   1 H    0.998 --    45 C    0.957
   111   1 H    0.998 --    46 C    0.971
   112   1 H    0.998 --    46 C    0.966
   113   1 H    0.999 --    47 C    0.976
   114   1 H    0.999 --    47 C    0.972
   115   1 H    0.999 --    48 C    0.974
   116   1 H    0.999 --    48 C    0.976
   117   1 H    0.999 --    49 C    0.977
   118   1 H    1.000 --    49 C    0.973
   119   1 H    0.997 --    50 C    0.980
   120   1 H    0.999 --    50 C    0.987
   121   1 H    0.998 --    50 C    0.987
   122   1 H    0.884 --    51 O    0.837
   123   1 H    0.868 --    52 O    0.850
   124   1 H    1.000 --    53 C    0.945
   125   1 H    0.999 --    54 C    0.957
   126   1 H    0.996 --    55 C    0.951
   127   1 H    0.993 --    56 C    0.957
   128   1 H    0.997 --    57 C    0.932
   129   1 H    0.996 --    59 C    0.972
   130   1 H    0.993 --    59 C    0.962
   131   1 H    0.890 --    60 O    0.868
   132   1 H    0.874 --    61 O    0.850
   133   1 H    0.864 --    62 O    0.843
   134   1 H    0.897 --    63 O    0.852
   135   1 H    0.995 --    65 C    0.964
   136   1 H    0.994 --    66 C    0.965
   137   1 H    0.997 --    69 C    0.962
   138   1 H    0.997 --    72 C    0.967
   139   1 H    0.996 --    73 C    0.968
   140   1 H    0.996 --    74 C    0.968
   141   1 H    0.997 --    75 C    0.968
 ---------------------------------------------------------------------------

Topologies differ in total number of bonds
Writing topology from bond orders to xtbtopo.mol

molecular dipole:
                 x           y           z       tot (Debye)
 q only:        0.599       1.482      -0.262
   full:        1.148       0.987      -0.595       4.133
molecular quadrupole (traceless):
                xx          xy          yy          xz          yz          zz
 q only:       78.628       8.830     -19.758     -28.691      10.047     -58.869
  q+dip:       70.981      11.931     -11.970     -31.456      23.235     -59.012
   full:       72.543      14.867      -9.190     -34.775      18.527     -63.353


           -------------------------------------------------
          | TOTAL ENERGY             -234.682740185840 Eh   |
          | GRADIENT NORM               0.138972071319 Eh/α |
          | HOMO-LUMO GAP               1.516653247515 eV   |
           -------------------------------------------------

------------------------------------------------------------------------
 * finished run on 2026/06/19 at 18:52:32.797     
------------------------------------------------------------------------
 total:
 * wall-time:     0 d,  0 h,  0 min,  0.317 sec
 *  cpu-time:     0 d,  0 h,  0 min,  4.788 sec
 * ratio c/w:    15.113 speedup
 SCF:
 * wall-time:     0 d,  0 h,  0 min,  0.261 sec
 *  cpu-time:     0 d,  0 h,  0 min,  4.087 sec
 * ratio c/w:    15.630 speedup

normal termination of xtb
