      -----------------------------------------------------------      
     |                   =====================                   |     
     |                           x T B                           |     
     |                   =====================                   |     
     |                         S. Grimme                         |     
     |          Mulliken Center for Theoretical Chemistry        |     
     |                    University of Bonn                     |     
      -----------------------------------------------------------      

   * xtb version 6.7.1 (edcfbbe) compiled by 'albert@albert-system' on 2024-07-22

   xtb is free software: you can redistribute it and/or modify it under
   the terms of the GNU Lesser General Public License as published by
   the Free Software Foundation, either version 3 of the License, or
   (at your option) any later version.
   
   xtb is distributed in the hope that it will be useful,
   but WITHOUT ANY WARRANTY; without even the implied warranty of
   MERCHANTABILITY or FITNESS FOR A PARTICULAR PURPOSE.  See the
   GNU Lesser General Public License for more details.
   
   Cite this work as:
   * C. Bannwarth, E. Caldeweyher, S. Ehlert, A. Hansen, P. Pracht,
     J. Seibert, S. Spicher, S. Grimme, WIREs Comput. Mol. Sci., 2020, 11,
     e01493. DOI: 10.1002/wcms.1493
   
   for GFN2-xTB:
   * C. Bannwarth, S. Ehlert and S. Grimme., J. Chem. Theory Comput., 2019,
     15, 1652-1671. DOI: 10.1021/acs.jctc.8b01176
   for GFN1-xTB:
   * S. Grimme, C. Bannwarth, P. Shushkov, J. Chem. Theory Comput., 2017,
     13, 1989-2009. DOI: 10.1021/acs.jctc.7b00118
   for GFN0-xTB:
   * P. Pracht, E. Caldeweyher, S. Ehlert, S. Grimme, ChemRxiv, 2019, preprint.
     DOI: 10.26434/chemrxiv.8326202.v1
   for GFN-FF:
   * S. Spicher and S. Grimme, Angew. Chem. Int. Ed., 2020, 59, 15665-15673.
     DOI: 10.1002/anie.202004239
   
   for ALPB and GBSA implicit solvation:
   * S. Ehlert, M. Stahn, S. Spicher, S. Grimme, J. Chem. Theory Comput.,
     2021, 17, 4250-4261. DOI: 10.1021/acs.jctc.1c00471
   
   for ddCOSMO and CPCM-X implicit solvation:
   * M. Stahn, S. Ehlert, S. Grimme, J. Phys. Chem. A,
     2023, XX, XXXX-XXXX. DOI: 10.1021/acs.jpca.3c04382
   
   for DFT-D4:
   * E. Caldeweyher, C. Bannwarth and S. Grimme, J. Chem. Phys., 2017,
     147, 034112. DOI: 10.1063/1.4993215
   * E. Caldeweyher, S. Ehlert, A. Hansen, H. Neugebauer, S. Spicher,
     C. Bannwarth and S. Grimme, J. Chem. Phys., 2019, 150, 154122.
     DOI: 10.1063/1.5090222
   * E. Caldeweyher, J.-M. Mewes, S. Ehlert and S. Grimme, Phys. Chem. Chem. Phys.
     2020, 22, 8499-8512. DOI: 10.1039/D0CP00502A
   
   for sTDA-xTB:
   * S. Grimme and C. Bannwarth, J. Chem. Phys., 2016, 145, 054103.
     DOI: 10.1063/1.4959605
   
   in the mass-spec context:
   * V. Asgeirsson, C. Bauer and S. Grimme, Chem. Sci., 2017, 8, 4879.
     DOI: 10.1039/c7sc00601b
   * J. Koopman and S. Grimme, ACS Omega 2019, 4, 12, 15120-15133.
     DOI: 10.1021/acsomega.9b02011
   
   for metadynamics refer to:
   * S. Grimme, J. Chem. Theory Comput., 2019, 155, 2847-2862
     DOI: 10.1021/acs.jctc.9b00143
   
   for SPH calculations refer to:
   * S. Spicher and S. Grimme, J. Chem. Theory Comput., 2021, 17, 1701-1714
     DOI: 10.1021/acs.jctc.0c01306
   
   for ONIOM refer to:
   * C. Plett, A. Katbashev, S. Ehlert, S. Grimme, M. Bursch,
     Phys. Chem. Chem. Phys., 2023, 25, 17860-17868. DOI: 10.1039/D3CP02178E
   
   for DIPRO refer to:
   * J. Kohn, N. Gildemeister, S. Grimme, D. Fazzi, A. Hansen,
     J. Chem. Phys., 2023, just accepted.
   
   for PTB refer to:
   * S. Grimme, M. Mueller, A. Hansen, J. Chem. Phys., 2023, 158, 124111.
     DOI: 10.1063/5.0137838
   
   with help from (in alphabetical order)
   P. Atkinson, C. Bannwarth, F. Bohle, G. Brandenburg, E. Caldeweyher
   M. Checinski, S. Dohm, S. Ehlert, S. Ehrlich, I. Gerasimov, C. Hölzer
   A. Katbashev, J. Kohn, J. Koopman, C. Lavigne, S. Lehtola, F. März, M. Müller,
   F. Musil, H. Neugebauer, J. Pisarek, C. Plett, P. Pracht, F. Pultar,
   J. Seibert, P. Shushkov, S. Spicher, M. Stahn, M. Steiner, T. Strunk,
   J. Stückrath, T. Rose, and J. Unsleber
   
 * started run on 2026/06/19 at 18:52:32.151     
   ID    Z sym.   atoms
    1    6 C      1-11, 13, 18, 20, 22-25, 29, 31, 33, 34, 36-41, 43-50,
                  53-57, 59, 64-75
    2    8 O      12, 14-17, 19, 21, 26-28, 30, 32, 35, 42, 51, 52, 58, 60-63
    3    1 H      76-141

           -------------------------------------------------
          |                Calculation Setup                |
           -------------------------------------------------

          program call               : xtb PAPU-0078/conf02.xyz --gfn 2 --alpb water --chrg 0 --uhf 0 --namespace PAPU-0078/conf02_water
          hostname                   : cpu10
          calculation namespace      : PAPU-0078/conf02_water
          coordinate file            : PAPU-0078/conf02.xyz
          omp threads                :                    16


           -------------------------------------------------
          |                 G F N 2 - x T B                 |
           -------------------------------------------------

        Reference                      10.1021/acs.jctc.8b01176
      * Hamiltonian:
        H0-scaling (s, p, d)           1.850000    2.230000    2.230000
        zeta-weighting                 0.500000
      * Dispersion:
        s8                             2.700000
        a1                             0.520000
        a2                             5.000000
        s9                             5.000000
      * Repulsion:
        kExp                           1.500000    1.000000
        rExp                           1.000000
      * Coulomb:
        alpha                          2.000000
        third order                    shell-resolved
        anisotropic                    true
        a3                             3.000000
        a5                             4.000000
        cn-shift                       1.200000
        cn-exp                         4.000000
        max-rad                        5.000000

      * Solvation model:               ALPB
        Solvent                        water
        Parameter file                 internal GFN2-xTB/ALPB
        Dielectric constant                8.0200E+01
        Reference state                gsolv [1 M gas/solution]
        Free energy shift                  1.0808E-03 Eh       6.7819E-01 kcal/mol
        Temperature                        2.9815E+02 K
        Density                            1.0000E+00 kg/L
        Solvent mass                       1.8000E+01 g/mol
        Interaction kernel             P16
        Born radius scaling (c1)           1.4744E+00
        Born radii integrator          GBOBC
        Born offset                        0.0000E+00 a0       0.0000E+00 AA
        H-bond correction              true
        Ion screening                  false
        Surface tension                    1.0000E-05 Eh       1.5569E+01 dyn/cm
        Grid points                               230 per atom

          ...................................................
          :                      SETUP                      :
          :.................................................:
          :  # basis functions                 366          :
          :  # atomic orbitals                 366          :
          :  # shells                          216          :
          :  # electrons                       408          :
          :  max. iterations                   250          :
          :  Hamiltonian                  GFN2-xTB          :
          :  restarted?                      false          :
          :  GBSA solvation                   true          :
          :  PC potential                    false          :
          :  electronic temp.          300.0000000     K    :
          :  accuracy                    1.0000000          :
          :  -> integral cutoff          0.2500000E+02      :
          :  -> integral neglect         0.1000000E-07      :
          :  -> SCF convergence          0.1000000E-05 Eh   :
          :  -> wf. convergence          0.1000000E-03 e    :
          :  Broyden damping             0.4000000          :
          :  net charge                          0          :
          :  unpaired electrons                  0          :
          ...................................................

 iter      E             dE          RMSdq      gap      omega  full diag
   1   -237.0075590 -0.237008E+03  0.438E+00    2.29       0.0  T
   2   -237.2164475 -0.208889E+00  0.241E+00    1.94       1.0  T
   3   -237.1897679  0.266796E-01  0.102E+00    1.86       1.0  T
   4   -237.2365623 -0.467944E-01  0.319E-01    1.64       1.0  T
   5   -237.2446413 -0.807904E-02  0.130E-01    1.63       1.0  T
   6   -237.2453703 -0.728992E-03  0.672E-02    1.63       1.0  T
   7   -237.2455066 -0.136289E-03  0.326E-02    1.64       1.0  T
   8   -237.2455539 -0.473304E-04  0.154E-02    1.64       1.0  T
   9   -237.2455627 -0.876443E-05  0.839E-03    1.64       1.0  T
  10   -237.2455662 -0.353291E-05  0.467E-03    1.64       1.8  T
  11   -237.2455672 -0.100473E-05  0.234E-03    1.63       3.6  T
  12   -237.2455674 -0.194235E-06  0.990E-04    1.63       8.5  T
  13   -237.2455675 -0.496644E-07  0.495E-04    1.63      17.0  T

   *** convergence criteria satisfied after 13 iterations ***

         #    Occupation            Energy/Eh            Energy/eV
      -------------------------------------------------------------
         1        2.0000           -0.7701743             -20.9575
       ...           ...                  ...                  ...
       198        2.0000           -0.4063900             -11.0584
       199        2.0000           -0.4038718             -10.9899
       200        2.0000           -0.3992841             -10.8651
       201        2.0000           -0.3978908             -10.8272
       202        2.0000           -0.3835203             -10.4361
       203        2.0000           -0.3791236             -10.3165
       204        2.0000           -0.3676070             -10.0031 (HOMO)
       205                         -0.3075249              -8.3682 (LUMO)
       206                         -0.2986353              -8.1263
       207                         -0.2626657              -7.1475
       208                         -0.2430010              -6.6124
       209                         -0.2363877              -6.4324
       ...                                ...                  ...
       366                          0.8545689              23.2540
      -------------------------------------------------------------
                  HL-Gap            0.0600821 Eh            1.6349 eV
             Fermi-level           -0.3375659 Eh           -9.1856 eV

 SCC (total)                   0 d,  0 h,  0 min,  0.261 sec
 SCC setup                      ...        0 min,  0.003 sec (  1.086%)
 Dispersion                     ...        0 min,  0.004 sec (  1.516%)
 classical contributions        ...        0 min,  0.000 sec (  0.041%)
 integral evaluation            ...        0 min,  0.011 sec (  4.360%)
 iterations                     ...        0 min,  0.205 sec ( 78.785%)
 molecular gradient             ...        0 min,  0.036 sec ( 13.694%)
 printout                       ...        0 min,  0.001 sec (  0.502%)

         :::::::::::::::::::::::::::::::::::::::::::::::::::::
         ::                     SUMMARY                     ::
         :::::::::::::::::::::::::::::::::::::::::::::::::::::
         :: total energy            -234.657379912091 Eh    ::
         :: total w/o Gsasa/hb      -234.626722643795 Eh    ::
         :: gradient norm              0.139015414065 Eh/a0 ::
         :: HOMO-LUMO gap              1.634918048390 eV    ::
         ::.................................................::
         :: SCC energy              -237.230367704393 Eh    ::
         :: -> isotropic ES            0.544825892064 Eh    ::
         :: -> anisotropic ES         -0.027994312040 Eh    ::
         :: -> anisotropic XC          0.020749232450 Eh    ::
         :: -> dispersion             -0.202857821873 Eh    ::
         :: -> Gsolv                  -0.081836685437 Eh    ::
         ::    -> Gelec               -0.051179417140 Eh    ::
         ::    -> Gsasa                0.006246075770 Eh    ::
         ::    -> Ghb                 -0.037984103765 Eh    ::
         ::    -> Gshift               0.001080759698 Eh    ::
         :: repulsion energy           2.572987792302 Eh    ::
         :: add. restraining           0.000000000000 Eh    ::
         :: total charge               0.000000000000 e     ::
         :::::::::::::::::::::::::::::::::::::::::::::::::::::

           -------------------------------------------------
          |                Property Printout                |
           -------------------------------------------------

    * Orbital Energies and Occupations

         #    Occupation            Energy/Eh            Energy/eV
      -------------------------------------------------------------
         1        2.0000           -0.7701743             -20.9575
       ...           ...                  ...                  ...
       192        2.0000           -0.4172650             -11.3544
       193        2.0000           -0.4158102             -11.3148
       194        2.0000           -0.4142075             -11.2712
       195        2.0000           -0.4115345             -11.1984
       196        2.0000           -0.4103692             -11.1667
       197        2.0000           -0.4092172             -11.1354
       198        2.0000           -0.4063900             -11.0584
       199        2.0000           -0.4038718             -10.9899
       200        2.0000           -0.3992841             -10.8651
       201        2.0000           -0.3978908             -10.8272
       202        2.0000           -0.3835203             -10.4361
       203        2.0000           -0.3791236             -10.3165
       204        2.0000           -0.3676070             -10.0031 (HOMO)
       205                         -0.3075249              -8.3682 (LUMO)
       206                         -0.2986353              -8.1263
       207                         -0.2626657              -7.1475
       208                         -0.2430010              -6.6124
       209                         -0.2363877              -6.4324
       210                         -0.2312807              -6.2935
       211                         -0.2236588              -6.0861
       212                         -0.2224044              -6.0519
       213                         -0.2028581              -5.5200
       214                         -0.1923759              -5.2348
       215                         -0.1556998              -4.2368
       ...                                ...                  ...
       366                          0.8545689              23.2540
      -------------------------------------------------------------
                  HL-Gap            0.0600821 Eh            1.6349 eV
             Fermi-level           -0.3375659 Eh           -9.1856 eV

     #   Z          covCN         q      C6AA      α(0)
     1   6 C        2.842     0.140    24.937     8.184
     2   6 C        2.970    -0.048    29.197     8.863
     3   6 C        2.964    -0.005    28.142     8.701
     4   6 C        2.931    -0.073    29.820     8.956
     5   6 C        2.837     0.145    24.836     8.167
     6   6 C        2.921    -0.099    30.481     9.054
     7   6 C        3.744     0.103    18.952     6.210
     8   6 C        3.719     0.101    19.032     6.231
     9   6 C        3.747     0.107    18.893     6.200
    10   6 C        3.744     0.095    19.073     6.230
    11   6 C        3.740     0.102    18.982     6.216
    12   8 O        1.694    -0.347    19.836     6.013
    13   6 C        3.683     0.080    19.437     6.313
    14   8 O        1.652    -0.491    22.694     6.431
    15   8 O        1.651    -0.494    22.766     6.441
    16   8 O        1.697    -0.323    19.394     5.946
    17   8 O        1.702    -0.295    18.903     5.870
    18   6 C        3.677     0.076    19.522     6.330
    19   8 O        1.654    -0.476    22.385     6.387
    20   6 C        3.637     0.236    17.260     5.977
    21   8 O        1.696    -0.361    20.102     6.053
    22   6 C        3.745     0.109    18.854     6.194
    23   6 C        3.721     0.094    19.126     6.246
    24   6 C        3.722     0.094    19.136     6.247
    25   6 C        3.740     0.095    19.084     6.233
    26   8 O        1.654    -0.485    22.583     6.415
    27   8 O        1.698    -0.326    19.454     5.955
    28   8 O        1.653    -0.493    22.739     6.437
    29   6 C        3.735     0.069    19.513     6.304
    30   8 O        1.703    -0.263    18.358     5.785
    31   6 C        2.756     0.350    21.059     7.515
    32   8 O        0.857    -0.481    23.365     6.481
    33   6 C        2.720     0.356    20.953     7.493
    34   6 C        2.898    -0.081    30.032     8.985
    35   8 O        0.858    -0.495    23.682     6.525
    36   6 C        2.902     0.011    27.761     8.639
    37   6 C        2.901    -0.037    28.931     8.819
    38   6 C        2.896    -0.008    28.210     8.708
    39   6 C        3.807    -0.078    21.985     6.675
    40   6 C        3.729     0.122    18.676     6.169
    41   6 C        2.895    -0.061    29.510     8.907
    42   8 O        1.652    -0.517    23.254     6.510
    43   6 C        2.901    -0.034    28.843     8.806
    44   6 C        2.898    -0.051    29.278     8.872
    45   6 C        2.897    -0.041    29.009     8.831
    46   6 C        3.806    -0.059    21.631     6.621
    47   6 C        3.801    -0.053    21.520     6.605
    48   6 C        3.801    -0.062    21.692     6.631
    49   6 C        3.799    -0.051    21.484     6.600
    50   6 C        3.751    -0.115    22.772     6.805
    51   8 O        1.656    -0.429    21.428     6.249
    52   8 O        1.656    -0.444    21.716     6.291
    53   6 C        3.633     0.251    17.067     5.947
    54   6 C        3.720     0.093    19.147     6.250
    55   6 C        3.724     0.089    19.205     6.258
    56   6 C        3.722     0.078    19.381     6.287
    57   6 C        3.743     0.096    19.071     6.230
    58   8 O        1.695    -0.379    20.428     6.102
    59   6 C        3.673     0.075    19.552     6.337
    60   8 O        1.654    -0.469    22.227     6.364
    61   8 O        1.654    -0.486    22.596     6.417
    62   8 O        1.653    -0.481    22.484     6.401
    63   8 O        1.652    -0.490    22.669     6.427
    64   6 C        2.973    -0.026    28.635     8.778
    65   6 C        2.929    -0.019    28.489     8.753
    66   6 C        2.909    -0.037    28.911     8.817
    67   6 C        3.334     0.015    25.270     7.966
    68   6 C        3.333     0.007    25.463     8.000
    69   6 C        2.915    -0.032    28.805     8.801
    70   6 C        3.335     0.002    25.529     8.003
    71   6 C        3.333     0.002    25.575     8.017
    72   6 C        2.911    -0.031    28.774     8.796
    73   6 C        2.923    -0.031    28.764     8.795
    74   6 C        2.923    -0.031    28.771     8.796
    75   6 C        2.911    -0.033    28.826     8.804
    76   1 H        0.926     0.068     2.109     2.271
    77   1 H        0.926     0.075     2.029     2.228
    78   1 H        0.924     0.042     2.417     2.431
    79   1 H        0.923     0.055     2.264     2.353
    80   1 H        0.924     0.036     2.507     2.476
    81   1 H        0.924     0.097     1.816     2.107
    82   1 H        0.924     0.028     2.619     2.531
    83   1 H        0.924     0.052     2.290     2.366
    84   1 H        0.924     0.020     2.735     2.586
    85   1 H        0.802     0.325     0.651     1.268
    86   1 H        0.803     0.340     0.612     1.229
    87   1 H        0.924     0.048     2.342     2.393
    88   1 H        0.924     0.075     2.027     2.226
    89   1 H        0.803     0.354     0.580     1.196
    90   1 H        0.924     0.021     2.714     2.576
    91   1 H        0.923     0.037     2.483     2.464
    92   1 H        0.923     0.050     2.320     2.382
    93   1 H        0.923     0.044     2.401     2.423
    94   1 H        0.924     0.088     1.896     2.154
    95   1 H        0.804     0.366     0.552     1.167
    96   1 H        0.803     0.378     0.527     1.140
    97   1 H        0.924     0.106     1.732     2.058
    98   1 H        0.924     0.082     1.954     2.186
    99   1 H        0.926     0.079     1.986     2.204
   100   1 H        0.926     0.073     2.050     2.239
   101   1 H        0.926     0.067     2.123     2.279
   102   1 H        0.926     0.071     2.072     2.251
   103   1 H        0.924     0.067     2.121     2.277
   104   1 H        0.924     0.070     2.087     2.259
   105   1 H        0.923     0.035     2.524     2.484
   106   1 H        0.926     0.047     2.364     2.404
   107   1 H        0.804     0.355     0.576     1.193
   108   1 H        0.926     0.052     2.292     2.367
   109   1 H        0.926     0.039     2.458     2.452
   110   1 H        0.926     0.043     2.408     2.427
   111   1 H        0.924     0.029     2.602     2.522
   112   1 H        0.924     0.041     2.430     2.438
   113   1 H        0.924     0.031     2.569     2.507
   114   1 H        0.924     0.024     2.675     2.558
   115   1 H        0.924     0.032     2.555     2.500
   116   1 H        0.924     0.032     2.558     2.501
   117   1 H        0.924     0.030     2.588     2.516
   118   1 H        0.924     0.020     2.735     2.586
   119   1 H        0.924     0.051     2.312     2.378
   120   1 H        0.924     0.034     2.525     2.485
   121   1 H        0.924     0.038     2.470     2.458
   122   1 H        0.803     0.343     0.606     1.223
   123   1 H        0.804     0.376     0.531     1.144
   124   1 H        0.924     0.004     2.990     2.704
   125   1 H        0.924     0.045     2.381     2.413
   126   1 H        0.923     0.057     2.231     2.336
   127   1 H        0.923     0.077     2.014     2.219
   128   1 H        0.924     0.048     2.348     2.396
   129   1 H        0.924     0.059     2.215     2.327
   130   1 H        0.924     0.074     2.045     2.236
   131   1 H        0.803     0.339     0.615     1.232
   132   1 H        0.803     0.367     0.550     1.165
   133   1 H        0.803     0.362     0.561     1.177
   134   1 H        0.802     0.317     0.673     1.289
   135   1 H        0.926     0.066     2.124     2.279
   136   1 H        0.926     0.068     2.108     2.270
   137   1 H        0.926     0.052     2.290     2.366
   138   1 H        0.926     0.053     2.279     2.361
   139   1 H        0.926     0.060     2.195     2.317
   140   1 H        0.926     0.059     2.210     2.324
   141   1 H        0.926     0.049     2.338     2.391

 Mol. C6AA /au·bohr⁶  :     202003.678579
 Mol. C8AA /au·bohr⁸  :    4659137.534984
 Mol. α(0) /au        :        678.338494


Wiberg/Mayer (AO) data.
largest (>0.10) Wiberg bond orders for each atom

 ---------------------------------------------------------------------------
     #   Z sym  total        # sym  WBO       # sym  WBO       # sym  WBO
 ---------------------------------------------------------------------------
     1   6 C    3.945 --     6 C    1.388     2 C    1.334    51 O    1.077
     2   6 C    3.970 --     3 C    1.387     1 C    1.334     7 C    0.991
     3   6 C    3.987 --     4 C    1.430     2 C    1.387    13 C    0.999
     4   6 C    3.983 --     3 C    1.430     5 C    1.360    76 H    0.964
     5   6 C    3.946 --     6 C    1.381     4 C    1.360    52 O    1.078
     6   6 C    3.977 --     1 C    1.388     5 C    1.381    77 H    0.961
     7   6 C    3.937 --     2 C    0.991     8 C    0.951    12 O    0.946
                            78 H    0.946
     8   6 C    3.950 --    15 O    0.987     9 C    0.967    79 H    0.957
                             7 C    0.951
     9   6 C    3.929 --     8 C    0.967    10 C    0.966    80 H    0.938
                            17 O    0.937
    10   6 C    3.933 --     9 C    0.966    16 O    0.963    11 C    0.962
                            81 H    0.945
    11   6 C    3.945 --    18 C    0.978    12 O    0.963    10 C    0.962
                            82 H    0.951
    12   8 O    2.076 --    11 C    0.963     7 C    0.946
    13   6 C    3.958 --     3 C    0.999    14 O    0.990    83 H    0.968
                            84 H    0.952
    14   8 O    1.927 --    13 C    0.990    85 H    0.848
    15   8 O    1.946 --     8 C    0.987    86 H    0.828
    16   8 O    2.096 --    20 C    0.988    10 C    0.963
    17   8 O    2.262 --    33 C    1.083     9 C    0.937    35 O    0.141
    18   6 C    3.956 --    19 O    1.012    11 C    0.978    87 H    0.963
                            88 H    0.960
    19   8 O    1.940 --    18 C    1.012    89 H    0.859
    20   6 C    3.924 --    16 O    0.988    25 C    0.954    21 O    0.948
                            90 H    0.932
    21   8 O    2.058 --    22 C    0.955    20 C    0.948
    22   6 C    3.940 --    29 C    0.984    23 C    0.967    21 O    0.955
                            91 H    0.947
    23   6 C    3.967 --    28 O    1.009    22 C    0.967    24 C    0.967
                            92 H    0.957
    24   6 C    3.961 --    26 O    1.001    23 C    0.967    25 C    0.961
                            93 H    0.951
    25   6 C    3.934 --    27 O    0.963    24 C    0.961    20 C    0.954
                            94 H    0.949
    26   8 O    1.930 --    24 C    1.001    95 H    0.847
    27   8 O    2.084 --    53 C    0.976    25 C    0.963
    28   8 O    1.916 --    23 C    1.009    96 H    0.834
    29   6 C    3.922 --    22 C    0.984    97 H    0.961    98 H    0.960
                            30 O    0.958
    30   8 O    2.301 --    31 C    1.111    29 C    0.958    32 O    0.150
    31   6 C    3.894 --    32 O    1.643    30 O    1.111    64 C    1.033
    32   8 O    1.971 --    31 C    1.643    30 O    0.150
    33   6 C    3.894 --    35 O    1.599    34 C    1.094    17 O    1.083
    34   6 C    3.967 --    36 C    1.697    33 C    1.094    99 H    0.960
                            38 C    0.106
    35   8 O    1.985 --    33 C    1.599    17 O    0.141
    36   6 C    3.971 --    34 C    1.697    37 C    1.166   100 H    0.954
    37   6 C    3.985 --    38 C    1.763    36 C    1.166   101 H    0.958
    38   6 C    3.970 --    37 C    1.763    39 C    1.048   102 H    0.962
                            34 C    0.106
    39   6 C    3.984 --    38 C    1.048   104 H    0.965   103 H    0.964
                            40 C    0.932
    40   6 C    3.943 --    41 C    1.013    42 O    0.981   105 H    0.956
                            39 C    0.932
    41   6 C    3.978 --    43 C    1.828    40 C    1.013   106 H    0.965
                            45 C    0.126
    42   8 O    1.909 --    40 C    0.981   107 H    0.858
    43   6 C    3.989 --    41 C    1.828    44 C    1.124   108 H    0.957
    44   6 C    3.989 --    45 C    1.830    43 C    1.124   109 H    0.963
    45   6 C    3.980 --    44 C    1.830    46 C    1.029   110 H    0.957
                            41 C    0.126
    46   6 C    3.996 --    45 C    1.029    47 C    0.985   111 H    0.971
                           112 H    0.966
    47   6 C    3.989 --    48 C    1.006    46 C    0.985   113 H    0.976
                           114 H    0.972
    48   6 C    3.995 --    49 C    1.007    47 C    1.006   116 H    0.976
                           115 H    0.974
    49   6 C    3.996 --    50 C    1.021    48 C    1.007   117 H    0.977
                           118 H    0.973
    50   6 C    3.994 --    49 C    1.021   120 H    0.987   121 H    0.986
                           119 H    0.981
    51   8 O    2.090 --     1 C    1.077   122 H    0.835
    52   8 O    2.076 --     5 C    1.078   123 H    0.840
    53   6 C    3.921 --    27 O    0.976    54 C    0.959    58 O    0.953
                           124 H    0.945
    54   6 C    3.961 --    62 O    0.999    53 C    0.959    55 C    0.958
                           125 H    0.956
    55   6 C    3.962 --    61 O    1.009    56 C    0.960    54 C    0.958
                           126 H    0.952
    56   6 C    3.957 --    60 O    1.004    57 C    0.964    55 C    0.960
                           127 H    0.957
    57   6 C    3.926 --    59 C    0.985    56 C    0.964    58 O    0.937
                           128 H    0.932
    58   8 O    2.061 --    53 C    0.953    57 C    0.937
    59   6 C    3.947 --    63 O    0.989    57 C    0.985   129 H    0.972
                           130 H    0.963
    60   8 O    1.958 --    56 C    1.004   131 H    0.864
    61   8 O    1.937 --    55 C    1.009   132 H    0.842
    62   8 O    1.930 --    54 C    0.999   133 H    0.847
    63   8 O    1.933 --    59 C    0.989   134 H    0.855
    64   6 C    3.963 --    65 C    1.415    69 C    1.303    31 C    1.033
    65   6 C    3.969 --    64 C    1.415    66 C    1.390   135 H    0.965
                            68 C    0.101
    66   6 C    3.974 --    67 C    1.459    65 C    1.390   136 H    0.965
    67   6 C    3.970 --    66 C    1.459    68 C    1.287    70 C    0.996
    68   6 C    3.976 --    69 C    1.498    67 C    1.287    71 C    0.989
                            65 C    0.101
    69   6 C    3.974 --    68 C    1.498    64 C    1.303   137 H    0.962
    70   6 C    3.972 --    72 C    1.472    71 C    1.291    67 C    0.996
                            74 C    0.107
    71   6 C    3.973 --    75 C    1.478    70 C    1.291    68 C    0.989
                            73 C    0.108
    72   6 C    3.973 --    70 C    1.472    73 C    1.375   138 H    0.967
    73   6 C    3.968 --    74 C    1.485    72 C    1.375   139 H    0.968
                            71 C    0.108
    74   6 C    3.967 --    73 C    1.485    75 C    1.372   140 H    0.968
                            70 C    0.107
    75   6 C    3.978 --    71 C    1.478    74 C    1.372   141 H    0.968
    76   1 H    0.995 --     4 C    0.964
    77   1 H    0.994 --     6 C    0.961
    78   1 H    0.998 --     7 C    0.946
    79   1 H    0.997 --     8 C    0.957
    80   1 H    0.998 --     9 C    0.938
    81   1 H    0.990 --    10 C    0.945
    82   1 H    0.999 --    11 C    0.951
    83   1 H    0.997 --    13 C    0.968
    84   1 H    0.999 --    13 C    0.952
    85   1 H    0.894 --    14 O    0.848
    86   1 H    0.884 --    15 O    0.828
    87   1 H    0.997 --    18 C    0.963
    88   1 H    0.994 --    18 C    0.960
    89   1 H    0.875 --    19 O    0.859
    90   1 H    1.000 --    20 C    0.932
    91   1 H    0.999 --    22 C    0.947
    92   1 H    0.997 --    23 C    0.957
    93   1 H    0.998 --    24 C    0.951
    94   1 H    0.992 --    25 C    0.949
    95   1 H    0.866 --    26 O    0.847
    96   1 H    0.857 --    28 O    0.834
    97   1 H    0.988 --    29 C    0.961
    98   1 H    0.992 --    29 C    0.960
    99   1 H    0.994 --    34 C    0.960
   100   1 H    0.995 --    36 C    0.954
   101   1 H    0.995 --    37 C    0.958
   102   1 H    0.995 --    38 C    0.962
   103   1 H    0.995 --    39 C    0.964
   104   1 H    0.992 --    39 C    0.965
   105   1 H    0.995 --    40 C    0.956
   106   1 H    0.998 --    41 C    0.965
   107   1 H    0.874 --    42 O    0.858
   108   1 H    0.997 --    43 C    0.957
   109   1 H    0.998 --    44 C    0.963
   110   1 H    0.998 --    45 C    0.957
   111   1 H    0.998 --    46 C    0.971
   112   1 H    0.998 --    46 C    0.966
   113   1 H    0.999 --    47 C    0.976
   114   1 H    0.999 --    47 C    0.972
   115   1 H    0.999 --    48 C    0.974
   116   1 H    0.999 --    48 C    0.976
   117   1 H    0.999 --    49 C    0.977
   118   1 H    1.000 --    49 C    0.973
   119   1 H    0.997 --    50 C    0.981
   120   1 H    0.999 --    50 C    0.987
   121   1 H    0.998 --    50 C    0.986
   122   1 H    0.882 --    51 O    0.835
   123   1 H    0.858 --    52 O    0.840
   124   1 H    1.000 --    53 C    0.945
   125   1 H    0.998 --    54 C    0.956
   126   1 H    0.997 --    55 C    0.952
   127   1 H    0.994 --    56 C    0.957
   128   1 H    0.998 --    57 C    0.932
   129   1 H    0.996 --    59 C    0.972
   130   1 H    0.994 --    59 C    0.963
   131   1 H    0.885 --    60 O    0.864
   132   1 H    0.865 --    61 O    0.842
   133   1 H    0.869 --    62 O    0.847
   134   1 H    0.899 --    63 O    0.855
   135   1 H    0.995 --    65 C    0.965
   136   1 H    0.995 --    66 C    0.965
   137   1 H    0.997 --    69 C    0.962
   138   1 H    0.997 --    72 C    0.967
   139   1 H    0.996 --    73 C    0.968
   140   1 H    0.996 --    74 C    0.968
   141   1 H    0.997 --    75 C    0.968
 ---------------------------------------------------------------------------

Topologies differ in total number of bonds
Writing topology from bond orders to xtbtopo.mol

molecular dipole:
                 x           y           z       tot (Debye)
 q only:        0.688       1.449      -0.303
   full:        1.218       0.966      -0.615       4.250
molecular quadrupole (traceless):
                xx          xy          yy          xz          yz          zz
 q only:       78.934       8.389     -18.132     -34.153      11.866     -60.801
  q+dip:       71.176      11.800     -10.903     -35.040      24.327     -60.273
   full:       72.731      14.736      -8.126     -38.346      19.631     -64.605


           -------------------------------------------------
          | TOTAL ENERGY             -234.657379912091 Eh   |
          | GRADIENT NORM               0.139015414065 Eh/α |
          | HOMO-LUMO GAP               1.634918048390 eV   |
           -------------------------------------------------

------------------------------------------------------------------------
 * finished run on 2026/06/19 at 18:52:32.466     
------------------------------------------------------------------------
 total:
 * wall-time:     0 d,  0 h,  0 min,  0.314 sec
 *  cpu-time:     0 d,  0 h,  0 min,  4.822 sec
 * ratio c/w:    15.345 speedup
 SCF:
 * wall-time:     0 d,  0 h,  0 min,  0.262 sec
 *  cpu-time:     0 d,  0 h,  0 min,  4.147 sec
 * ratio c/w:    15.856 speedup

normal termination of xtb
