      -----------------------------------------------------------      
     |                   =====================                   |     
     |                           x T B                           |     
     |                   =====================                   |     
     |                         S. Grimme                         |     
     |          Mulliken Center for Theoretical Chemistry        |     
     |                    University of Bonn                     |     
      -----------------------------------------------------------      

   * xtb version 6.7.1 (edcfbbe) compiled by 'albert@albert-system' on 2024-07-22

   xtb is free software: you can redistribute it and/or modify it under
   the terms of the GNU Lesser General Public License as published by
   the Free Software Foundation, either version 3 of the License, or
   (at your option) any later version.
   
   xtb is distributed in the hope that it will be useful,
   but WITHOUT ANY WARRANTY; without even the implied warranty of
   MERCHANTABILITY or FITNESS FOR A PARTICULAR PURPOSE.  See the
   GNU Lesser General Public License for more details.
   
   Cite this work as:
   * C. Bannwarth, E. Caldeweyher, S. Ehlert, A. Hansen, P. Pracht,
     J. Seibert, S. Spicher, S. Grimme, WIREs Comput. Mol. Sci., 2020, 11,
     e01493. DOI: 10.1002/wcms.1493
   
   for GFN2-xTB:
   * C. Bannwarth, S. Ehlert and S. Grimme., J. Chem. Theory Comput., 2019,
     15, 1652-1671. DOI: 10.1021/acs.jctc.8b01176
   for GFN1-xTB:
   * S. Grimme, C. Bannwarth, P. Shushkov, J. Chem. Theory Comput., 2017,
     13, 1989-2009. DOI: 10.1021/acs.jctc.7b00118
   for GFN0-xTB:
   * P. Pracht, E. Caldeweyher, S. Ehlert, S. Grimme, ChemRxiv, 2019, preprint.
     DOI: 10.26434/chemrxiv.8326202.v1
   for GFN-FF:
   * S. Spicher and S. Grimme, Angew. Chem. Int. Ed., 2020, 59, 15665-15673.
     DOI: 10.1002/anie.202004239
   
   for ALPB and GBSA implicit solvation:
   * S. Ehlert, M. Stahn, S. Spicher, S. Grimme, J. Chem. Theory Comput.,
     2021, 17, 4250-4261. DOI: 10.1021/acs.jctc.1c00471
   
   for ddCOSMO and CPCM-X implicit solvation:
   * M. Stahn, S. Ehlert, S. Grimme, J. Phys. Chem. A,
     2023, XX, XXXX-XXXX. DOI: 10.1021/acs.jpca.3c04382
   
   for DFT-D4:
   * E. Caldeweyher, C. Bannwarth and S. Grimme, J. Chem. Phys., 2017,
     147, 034112. DOI: 10.1063/1.4993215
   * E. Caldeweyher, S. Ehlert, A. Hansen, H. Neugebauer, S. Spicher,
     C. Bannwarth and S. Grimme, J. Chem. Phys., 2019, 150, 154122.
     DOI: 10.1063/1.5090222
   * E. Caldeweyher, J.-M. Mewes, S. Ehlert and S. Grimme, Phys. Chem. Chem. Phys.
     2020, 22, 8499-8512. DOI: 10.1039/D0CP00502A
   
   for sTDA-xTB:
   * S. Grimme and C. Bannwarth, J. Chem. Phys., 2016, 145, 054103.
     DOI: 10.1063/1.4959605
   
   in the mass-spec context:
   * V. Asgeirsson, C. Bauer and S. Grimme, Chem. Sci., 2017, 8, 4879.
     DOI: 10.1039/c7sc00601b
   * J. Koopman and S. Grimme, ACS Omega 2019, 4, 12, 15120-15133.
     DOI: 10.1021/acsomega.9b02011
   
   for metadynamics refer to:
   * S. Grimme, J. Chem. Theory Comput., 2019, 155, 2847-2862
     DOI: 10.1021/acs.jctc.9b00143
   
   for SPH calculations refer to:
   * S. Spicher and S. Grimme, J. Chem. Theory Comput., 2021, 17, 1701-1714
     DOI: 10.1021/acs.jctc.0c01306
   
   for ONIOM refer to:
   * C. Plett, A. Katbashev, S. Ehlert, S. Grimme, M. Bursch,
     Phys. Chem. Chem. Phys., 2023, 25, 17860-17868. DOI: 10.1039/D3CP02178E
   
   for DIPRO refer to:
   * J. Kohn, N. Gildemeister, S. Grimme, D. Fazzi, A. Hansen,
     J. Chem. Phys., 2023, just accepted.
   
   for PTB refer to:
   * S. Grimme, M. Mueller, A. Hansen, J. Chem. Phys., 2023, 158, 124111.
     DOI: 10.1063/5.0137838
   
   with help from (in alphabetical order)
   P. Atkinson, C. Bannwarth, F. Bohle, G. Brandenburg, E. Caldeweyher
   M. Checinski, S. Dohm, S. Ehlert, S. Ehrlich, I. Gerasimov, C. Hölzer
   A. Katbashev, J. Kohn, J. Koopman, C. Lavigne, S. Lehtola, F. März, M. Müller,
   F. Musil, H. Neugebauer, J. Pisarek, C. Plett, P. Pracht, F. Pultar,
   J. Seibert, P. Shushkov, S. Spicher, M. Stahn, M. Steiner, T. Strunk,
   J. Stückrath, T. Rose, and J. Unsleber
   
 * started run on 2026/06/19 at 18:52:33.482     
   ID    Z sym.   atoms
    1    6 C      1-11, 13, 18, 20, 22-25, 29, 31, 33, 34, 36-41, 43-50,
                  53-57, 59, 64-75
    2    8 O      12, 14-17, 19, 21, 26-28, 30, 32, 35, 42, 51, 52, 58, 60-63
    3    1 H      76-141

           -------------------------------------------------
          |                Calculation Setup                |
           -------------------------------------------------

          program call               : xtb PAPU-0078/conf04.xyz --gfn 2 --alpb water --chrg 0 --uhf 0 --namespace PAPU-0078/conf04_water
          hostname                   : cpu10
          calculation namespace      : PAPU-0078/conf04_water
          coordinate file            : PAPU-0078/conf04.xyz
          omp threads                :                    16


           -------------------------------------------------
          |                 G F N 2 - x T B                 |
           -------------------------------------------------

        Reference                      10.1021/acs.jctc.8b01176
      * Hamiltonian:
        H0-scaling (s, p, d)           1.850000    2.230000    2.230000
        zeta-weighting                 0.500000
      * Dispersion:
        s8                             2.700000
        a1                             0.520000
        a2                             5.000000
        s9                             5.000000
      * Repulsion:
        kExp                           1.500000    1.000000
        rExp                           1.000000
      * Coulomb:
        alpha                          2.000000
        third order                    shell-resolved
        anisotropic                    true
        a3                             3.000000
        a5                             4.000000
        cn-shift                       1.200000
        cn-exp                         4.000000
        max-rad                        5.000000

      * Solvation model:               ALPB
        Solvent                        water
        Parameter file                 internal GFN2-xTB/ALPB
        Dielectric constant                8.0200E+01
        Reference state                gsolv [1 M gas/solution]
        Free energy shift                  1.0808E-03 Eh       6.7819E-01 kcal/mol
        Temperature                        2.9815E+02 K
        Density                            1.0000E+00 kg/L
        Solvent mass                       1.8000E+01 g/mol
        Interaction kernel             P16
        Born radius scaling (c1)           1.4744E+00
        Born radii integrator          GBOBC
        Born offset                        0.0000E+00 a0       0.0000E+00 AA
        H-bond correction              true
        Ion screening                  false
        Surface tension                    1.0000E-05 Eh       1.5569E+01 dyn/cm
        Grid points                               230 per atom

          ...................................................
          :                      SETUP                      :
          :.................................................:
          :  # basis functions                 366          :
          :  # atomic orbitals                 366          :
          :  # shells                          216          :
          :  # electrons                       408          :
          :  max. iterations                   250          :
          :  Hamiltonian                  GFN2-xTB          :
          :  restarted?                      false          :
          :  GBSA solvation                   true          :
          :  PC potential                    false          :
          :  electronic temp.          300.0000000     K    :
          :  accuracy                    1.0000000          :
          :  -> integral cutoff          0.2500000E+02      :
          :  -> integral neglect         0.1000000E-07      :
          :  -> SCF convergence          0.1000000E-05 Eh   :
          :  -> wf. convergence          0.1000000E-03 e    :
          :  Broyden damping             0.4000000          :
          :  net charge                          0          :
          :  unpaired electrons                  0          :
          ...................................................

 iter      E             dE          RMSdq      gap      omega  full diag
   1   -237.0036648 -0.237004E+03  0.437E+00    2.23       0.0  T
   2   -237.2115257 -0.207861E+00  0.241E+00    1.93       1.0  T
   3   -237.1841877  0.273381E-01  0.102E+00    1.90       1.0  T
   4   -237.2322340 -0.480463E-01  0.319E-01    1.69       1.0  T
   5   -237.2401425 -0.790856E-02  0.130E-01    1.66       1.0  T
   6   -237.2408597 -0.717146E-03  0.665E-02    1.67       1.0  T
   7   -237.2409885 -0.128758E-03  0.326E-02    1.68       1.0  T
   8   -237.2410357 -0.472020E-04  0.153E-02    1.68       1.0  T
   9   -237.2410446 -0.892678E-05  0.847E-03    1.68       1.0  T
  10   -237.2410481 -0.347263E-05  0.470E-03    1.68       1.8  T
  11   -237.2410491 -0.100346E-05  0.224E-03    1.68       3.8  T
  12   -237.2410492 -0.172437E-06  0.960E-04    1.67       8.8  T
  13   -237.2410493 -0.447826E-07  0.481E-04    1.68      17.5  T

   *** convergence criteria satisfied after 13 iterations ***

         #    Occupation            Energy/Eh            Energy/eV
      -------------------------------------------------------------
         1        2.0000           -0.7705105             -20.9667
       ...           ...                  ...                  ...
       198        2.0000           -0.4057021             -11.0397
       199        2.0000           -0.4045862             -11.0094
       200        2.0000           -0.3986141             -10.8468
       201        2.0000           -0.3981314             -10.8337
       202        2.0000           -0.3837603             -10.4427
       203        2.0000           -0.3792912             -10.3210
       204        2.0000           -0.3690335             -10.0419 (HOMO)
       205                         -0.3074747              -8.3668 (LUMO)
       206                         -0.2985651              -8.1244
       207                         -0.2628196              -7.1517
       208                         -0.2432596              -6.6194
       209                         -0.2385470              -6.4912
       ...                                ...                  ...
       366                          0.8546035              23.2549
      -------------------------------------------------------------
                  HL-Gap            0.0615588 Eh            1.6751 eV
             Fermi-level           -0.3382541 Eh           -9.2044 eV

 SCC (total)                   0 d,  0 h,  0 min,  0.262 sec
 SCC setup                      ...        0 min,  0.003 sec (  1.103%)
 Dispersion                     ...        0 min,  0.004 sec (  1.479%)
 classical contributions        ...        0 min,  0.000 sec (  0.041%)
 integral evaluation            ...        0 min,  0.011 sec (  4.212%)
 iterations                     ...        0 min,  0.207 sec ( 79.024%)
 molecular gradient             ...        0 min,  0.036 sec ( 13.816%)
 printout                       ...        0 min,  0.001 sec (  0.308%)

         :::::::::::::::::::::::::::::::::::::::::::::::::::::
         ::                     SUMMARY                     ::
         :::::::::::::::::::::::::::::::::::::::::::::::::::::
         :: total energy            -234.652887389457 Eh    ::
         :: total w/o Gsasa/hb      -234.620725387303 Eh    ::
         :: gradient norm              0.136802554270 Eh/a0 ::
         :: HOMO-LUMO gap              1.675099960190 eV    ::
         ::.................................................::
         :: SCC energy              -237.226251260532 Eh    ::
         :: -> isotropic ES            0.542803352664 Eh    ::
         :: -> anisotropic ES         -0.026730387401 Eh    ::
         :: -> anisotropic XC          0.020791861809 Eh    ::
         :: -> dispersion             -0.201045425615 Eh    ::
         :: -> Gsolv                  -0.081963903688 Eh    ::
         ::    -> Gelec               -0.049801901533 Eh    ::
         ::    -> Gsasa                0.006289520203 Eh    ::
         ::    -> Ghb                 -0.039532282056 Eh    ::
         ::    -> Gshift               0.001080759698 Eh    ::
         :: repulsion energy           2.573363871075 Eh    ::
         :: add. restraining           0.000000000000 Eh    ::
         :: total charge              -0.000000000000 e     ::
         :::::::::::::::::::::::::::::::::::::::::::::::::::::

           -------------------------------------------------
          |                Property Printout                |
           -------------------------------------------------

    * Orbital Energies and Occupations

         #    Occupation            Energy/Eh            Energy/eV
      -------------------------------------------------------------
         1        2.0000           -0.7705105             -20.9667
       ...           ...                  ...                  ...
       192        2.0000           -0.4170591             -11.3488
       193        2.0000           -0.4159663             -11.3190
       194        2.0000           -0.4117005             -11.2029
       195        2.0000           -0.4105072             -11.1705
       196        2.0000           -0.4093802             -11.1398
       197        2.0000           -0.4059473             -11.0464
       198        2.0000           -0.4057021             -11.0397
       199        2.0000           -0.4045862             -11.0094
       200        2.0000           -0.3986141             -10.8468
       201        2.0000           -0.3981314             -10.8337
       202        2.0000           -0.3837603             -10.4427
       203        2.0000           -0.3792912             -10.3210
       204        2.0000           -0.3690335             -10.0419 (HOMO)
       205                         -0.3074747              -8.3668 (LUMO)
       206                         -0.2985651              -8.1244
       207                         -0.2628196              -7.1517
       208                         -0.2432596              -6.6194
       209                         -0.2385470              -6.4912
       210                         -0.2315739              -6.3014
       211                         -0.2239229              -6.0933
       212                         -0.2223635              -6.0508
       213                         -0.2029702              -5.5231
       214                         -0.1928067              -5.2465
       215                         -0.1557978              -4.2395
       ...                                ...                  ...
       366                          0.8546035              23.2549
      -------------------------------------------------------------
                  HL-Gap            0.0615588 Eh            1.6751 eV
             Fermi-level           -0.3382541 Eh           -9.2044 eV

     #   Z          covCN         q      C6AA      α(0)
     1   6 C        2.842     0.141    24.932     8.183
     2   6 C        2.970    -0.048    29.192     8.862
     3   6 C        2.964    -0.005    28.140     8.701
     4   6 C        2.930    -0.073    29.816     8.955
     5   6 C        2.837     0.145    24.831     8.166
     6   6 C        2.921    -0.099    30.484     9.054
     7   6 C        3.745     0.104    18.932     6.207
     8   6 C        3.719     0.100    19.037     6.232
     9   6 C        3.743     0.105    18.929     6.207
    10   6 C        3.742     0.097    19.047     6.226
    11   6 C        3.741     0.102    18.975     6.215
    12   8 O        1.694    -0.348    19.847     6.015
    13   6 C        3.683     0.082    19.416     6.310
    14   8 O        1.652    -0.491    22.708     6.433
    15   8 O        1.651    -0.494    22.774     6.442
    16   8 O        1.697    -0.321    19.371     5.942
    17   8 O        1.701    -0.296    18.922     5.873
    18   6 C        3.676     0.075    19.546     6.334
    19   8 O        1.654    -0.479    22.455     6.397
    20   6 C        3.636     0.238    17.237     5.973
    21   8 O        1.697    -0.359    20.061     6.047
    22   6 C        3.745     0.109    18.857     6.194
    23   6 C        3.721     0.095    19.122     6.245
    24   6 C        3.722     0.093    19.141     6.248
    25   6 C        3.742     0.095    19.076     6.231
    26   8 O        1.654    -0.483    22.527     6.407
    27   8 O        1.698    -0.322    19.384     5.944
    28   8 O        1.653    -0.493    22.732     6.436
    29   6 C        3.733     0.069    19.516     6.305
    30   8 O        1.703    -0.262    18.350     5.784
    31   6 C        2.754     0.350    21.056     7.514
    32   8 O        0.857    -0.480    23.353     6.479
    33   6 C        2.716     0.356    20.960     7.494
    34   6 C        2.897    -0.080    29.990     8.979
    35   8 O        0.858    -0.492    23.610     6.515
    36   6 C        2.900     0.011    27.772     8.641
    37   6 C        2.899    -0.038    28.940     8.821
    38   6 C        2.895    -0.008    28.226     8.711
    39   6 C        3.808    -0.073    21.882     6.659
    40   6 C        3.729     0.121    18.698     6.173
    41   6 C        2.895    -0.071    29.764     8.945
    42   8 O        1.652    -0.510    23.103     6.489
    43   6 C        2.900    -0.037    28.922     8.818
    44   6 C        2.899    -0.053    29.306     8.876
    45   6 C        2.897    -0.041    29.014     8.832
    46   6 C        3.806    -0.058    21.617     6.619
    47   6 C        3.802    -0.058    21.618     6.619
    48   6 C        3.800    -0.056    21.587     6.615
    49   6 C        3.799    -0.059    21.635     6.623
    50   6 C        3.751    -0.106    22.584     6.777
    51   8 O        1.656    -0.430    21.432     6.250
    52   8 O        1.656    -0.444    21.718     6.291
    53   6 C        3.636     0.252    17.049     5.941
    54   6 C        3.720     0.092    19.167     6.253
    55   6 C        3.724     0.088    19.217     6.260
    56   6 C        3.721     0.079    19.370     6.285
    57   6 C        3.744     0.095    19.074     6.230
    58   8 O        1.696    -0.379    20.423     6.101
    59   6 C        3.672     0.075    19.552     6.337
    60   8 O        1.654    -0.469    22.232     6.365
    61   8 O        1.654    -0.487    22.618     6.420
    62   8 O        1.653    -0.488    22.645     6.424
    63   8 O        1.651    -0.491    22.690     6.430
    64   6 C        2.973    -0.026    28.636     8.778
    65   6 C        2.928    -0.019    28.488     8.753
    66   6 C        2.909    -0.037    28.909     8.816
    67   6 C        3.333     0.015    25.291     7.971
    68   6 C        3.334     0.007    25.447     7.995
    69   6 C        2.915    -0.033    28.817     8.803
    70   6 C        3.336     0.002    25.522     8.001
    71   6 C        3.333     0.002    25.578     8.017
    72   6 C        2.911    -0.031    28.777     8.796
    73   6 C        2.923    -0.030    28.761     8.795
    74   6 C        2.923    -0.031    28.771     8.796
    75   6 C        2.911    -0.033    28.831     8.805
    76   1 H        0.926     0.068     2.111     2.272
    77   1 H        0.926     0.076     2.022     2.224
    78   1 H        0.924     0.040     2.456     2.451
    79   1 H        0.923     0.055     2.260     2.351
    80   1 H        0.924     0.037     2.489     2.467
    81   1 H        0.923     0.093     1.853     2.129
    82   1 H        0.924     0.026     2.639     2.540
    83   1 H        0.924     0.053     2.288     2.365
    84   1 H        0.924     0.017     2.775     2.605
    85   1 H        0.802     0.325     0.651     1.267
    86   1 H        0.803     0.342     0.609     1.226
    87   1 H        0.924     0.049     2.339     2.392
    88   1 H        0.924     0.081     1.966     2.193
    89   1 H        0.804     0.355     0.577     1.193
    90   1 H        0.924     0.020     2.732     2.585
    91   1 H        0.923     0.037     2.486     2.466
    92   1 H        0.923     0.050     2.325     2.385
    93   1 H        0.923     0.044     2.397     2.421
    94   1 H        0.924     0.090     1.874     2.141
    95   1 H        0.804     0.362     0.560     1.176
    96   1 H        0.803     0.378     0.527     1.140
    97   1 H        0.924     0.106     1.730     2.057
    98   1 H        0.924     0.082     1.958     2.188
    99   1 H        0.926     0.079     1.985     2.203
   100   1 H        0.926     0.076     2.022     2.223
   101   1 H        0.926     0.092     1.863     2.134
   102   1 H        0.926     0.059     2.210     2.325
   103   1 H        0.924     0.062     2.174     2.306
   104   1 H        0.924     0.084     1.942     2.179
   105   1 H        0.923     0.028     2.613     2.528
   106   1 H        0.926     0.041     2.429     2.437
   107   1 H        0.804     0.350     0.589     1.205
   108   1 H        0.926     0.045     2.385     2.415
   109   1 H        0.926     0.036     2.499     2.472
   110   1 H        0.926     0.047     2.360     2.402
   111   1 H        0.924     0.032     2.555     2.500
   112   1 H        0.924     0.039     2.466     2.456
   113   1 H        0.924     0.028     2.613     2.528
   114   1 H        0.924     0.034     2.536     2.491
   115   1 H        0.924     0.021     2.723     2.580
   116   1 H        0.924     0.032     2.555     2.500
   117   1 H        0.924     0.027     2.630     2.536
   118   1 H        0.924     0.039     2.460     2.453
   119   1 H        0.924     0.029     2.600     2.522
   120   1 H        0.924     0.035     2.523     2.484
   121   1 H        0.924     0.044     2.402     2.424
   122   1 H        0.803     0.343     0.605     1.222
   123   1 H        0.804     0.377     0.529     1.143
   124   1 H        0.924     0.001     3.047     2.730
   125   1 H        0.924     0.047     2.352     2.399
   126   1 H        0.923     0.057     2.232     2.336
   127   1 H        0.923     0.076     2.025     2.225
   128   1 H        0.924     0.047     2.356     2.400
   129   1 H        0.924     0.059     2.215     2.327
   130   1 H        0.924     0.072     2.064     2.247
   131   1 H        0.803     0.339     0.614     1.231
   132   1 H        0.803     0.367     0.550     1.165
   133   1 H        0.803     0.372     0.540     1.155
   134   1 H        0.802     0.317     0.672     1.287
   135   1 H        0.926     0.066     2.128     2.281
   136   1 H        0.926     0.068     2.107     2.270
   137   1 H        0.926     0.052     2.299     2.371
   138   1 H        0.926     0.053     2.277     2.360
   139   1 H        0.926     0.061     2.192     2.315
   140   1 H        0.926     0.059     2.208     2.324
   141   1 H        0.926     0.048     2.339     2.392

 Mol. C6AA /au·bohr⁶  :     202034.046881
 Mol. C8AA /au·bohr⁸  :    4659722.986760
 Mol. α(0) /au        :        678.395957


Wiberg/Mayer (AO) data.
largest (>0.10) Wiberg bond orders for each atom

 ---------------------------------------------------------------------------
     #   Z sym  total        # sym  WBO       # sym  WBO       # sym  WBO
 ---------------------------------------------------------------------------
     1   6 C    3.945 --     6 C    1.388     2 C    1.334    51 O    1.077
     2   6 C    3.970 --     3 C    1.387     1 C    1.334     7 C    0.991
     3   6 C    3.987 --     4 C    1.430     2 C    1.387    13 C    0.999
     4   6 C    3.983 --     3 C    1.430     5 C    1.360    76 H    0.964
     5   6 C    3.946 --     6 C    1.381     4 C    1.360    52 O    1.079
     6   6 C    3.977 --     1 C    1.388     5 C    1.381    77 H    0.961
     7   6 C    3.937 --     2 C    0.991     8 C    0.951    78 H    0.947
                            12 O    0.947
     8   6 C    3.950 --    15 O    0.988     9 C    0.966    79 H    0.957
                             7 C    0.951
     9   6 C    3.929 --     8 C    0.966    10 C    0.966    80 H    0.938
                            17 O    0.938
    10   6 C    3.934 --     9 C    0.966    16 O    0.962    11 C    0.962
                            81 H    0.949
    11   6 C    3.945 --    18 C    0.977    10 C    0.962    12 O    0.962
                            82 H    0.951
    12   8 O    2.075 --    11 C    0.962     7 C    0.947
    13   6 C    3.958 --     3 C    0.999    14 O    0.991    83 H    0.967
                            84 H    0.953
    14   8 O    1.926 --    13 C    0.991    85 H    0.847
    15   8 O    1.946 --     8 C    0.988    86 H    0.826
    16   8 O    2.105 --    20 C    0.985    10 C    0.962
    17   8 O    2.267 --    33 C    1.084     9 C    0.938    35 O    0.142
    18   6 C    3.954 --    19 O    1.013    11 C    0.977    87 H    0.962
                            88 H    0.955
    19   8 O    1.937 --    18 C    1.013    89 H    0.859
    20   6 C    3.923 --    16 O    0.985    25 C    0.954    21 O    0.949
                            90 H    0.933
    21   8 O    2.060 --    22 C    0.954    20 C    0.949
    22   6 C    3.940 --    29 C    0.984    23 C    0.967    21 O    0.954
                            91 H    0.947
    23   6 C    3.967 --    28 O    1.008    24 C    0.967    22 C    0.967
                            92 H    0.957
    24   6 C    3.961 --    26 O    1.000    23 C    0.967    25 C    0.961
                            93 H    0.951
    25   6 C    3.933 --    27 O    0.965    24 C    0.961    20 C    0.954
                            94 H    0.947
    26   8 O    1.932 --    24 C    1.000    95 H    0.850
    27   8 O    2.085 --    53 C    0.979    25 C    0.965
    28   8 O    1.916 --    23 C    1.008    96 H    0.835
    29   6 C    3.922 --    22 C    0.984    97 H    0.961    98 H    0.960
                            30 O    0.958
    30   8 O    2.301 --    31 C    1.112    29 C    0.958    32 O    0.151
    31   6 C    3.894 --    32 O    1.645    30 O    1.112    64 C    1.032
    32   8 O    1.972 --    31 C    1.645    30 O    0.151
    33   6 C    3.895 --    35 O    1.601    34 C    1.091    17 O    1.084
    34   6 C    3.977 --    36 C    1.712    33 C    1.091    99 H    0.958
    35   8 O    1.990 --    33 C    1.601    17 O    0.142
    36   6 C    3.970 --    34 C    1.712    37 C    1.147   100 H    0.956
    37   6 C    3.984 --    38 C    1.793    36 C    1.147   101 H    0.950
    38   6 C    3.981 --    37 C    1.793    39 C    1.040   102 H    0.961
    39   6 C    3.985 --    38 C    1.040   103 H    0.975    40 C    0.951
                           104 H    0.950
    40   6 C    3.953 --    41 C    1.004    42 O    0.978   105 H    0.959
                            39 C    0.951
    41   6 C    3.977 --    43 C    1.833    40 C    1.004   106 H    0.965
                            45 C    0.129
    42   8 O    1.913 --    40 C    0.978   107 H    0.862
    43   6 C    3.990 --    41 C    1.833    44 C    1.124   108 H    0.960
    44   6 C    3.988 --    45 C    1.828    43 C    1.124   109 H    0.963
    45   6 C    3.980 --    44 C    1.828    46 C    1.030   110 H    0.958
                            41 C    0.129
    46   6 C    3.996 --    45 C    1.030    47 C    0.984   112 H    0.971
                           111 H    0.969
    47   6 C    3.987 --    48 C    1.006    46 C    0.984   113 H    0.977
                           114 H    0.967
    48   6 C    3.996 --    49 C    1.007    47 C    1.006   116 H    0.977
                           115 H    0.974
    49   6 C    3.994 --    50 C    1.021    48 C    1.007   117 H    0.977
                           118 H    0.968
    50   6 C    3.996 --    49 C    1.021   120 H    0.987   119 H    0.987
                           121 H    0.985
    51   8 O    2.089 --     1 C    1.077   122 H    0.835
    52   8 O    2.076 --     5 C    1.079   123 H    0.840
    53   6 C    3.922 --    27 O    0.979    54 C    0.960    58 O    0.952
                           124 H    0.945
    54   6 C    3.961 --    62 O    1.000    53 C    0.960    55 C    0.958
                           125 H    0.957
    55   6 C    3.962 --    61 O    1.009    56 C    0.960    54 C    0.958
                           126 H    0.953
    56   6 C    3.958 --    60 O    1.004    57 C    0.964    55 C    0.960
                           127 H    0.957
    57   6 C    3.926 --    59 C    0.985    56 C    0.964    58 O    0.937
                           128 H    0.929
    58   8 O    2.061 --    53 C    0.952    57 C    0.937
    59   6 C    3.948 --    63 O    0.989    57 C    0.985   129 H    0.972
                           130 H    0.963
    60   8 O    1.958 --    56 C    1.004   131 H    0.863
    61   8 O    1.936 --    55 C    1.009   132 H    0.841
    62   8 O    1.924 --    54 C    1.000   133 H    0.842
    63   8 O    1.930 --    59 C    0.989   134 H    0.856
    64   6 C    3.963 --    65 C    1.415    69 C    1.303    31 C    1.032
    65   6 C    3.969 --    64 C    1.415    66 C    1.389   135 H    0.965
                            68 C    0.101
    66   6 C    3.974 --    67 C    1.459    65 C    1.389   136 H    0.965
    67   6 C    3.970 --    66 C    1.459    68 C    1.287    70 C    0.995
    68   6 C    3.976 --    69 C    1.498    67 C    1.287    71 C    0.990
                            65 C    0.101
    69   6 C    3.974 --    68 C    1.498    64 C    1.303   137 H    0.962
    70   6 C    3.972 --    72 C    1.472    71 C    1.291    67 C    0.995
                            74 C    0.107
    71   6 C    3.973 --    75 C    1.478    70 C    1.291    68 C    0.990
                            73 C    0.108
    72   6 C    3.973 --    70 C    1.472    73 C    1.374   138 H    0.967
    73   6 C    3.968 --    74 C    1.485    72 C    1.374   139 H    0.968
                            71 C    0.108
    74   6 C    3.967 --    73 C    1.485    75 C    1.371   140 H    0.968
                            70 C    0.107
    75   6 C    3.978 --    71 C    1.478    74 C    1.371   141 H    0.968
    76   1 H    0.995 --     4 C    0.964
    77   1 H    0.994 --     6 C    0.961
    78   1 H    0.998 --     7 C    0.947
    79   1 H    0.997 --     8 C    0.957
    80   1 H    0.998 --     9 C    0.938
    81   1 H    0.991 --    10 C    0.949
    82   1 H    0.999 --    11 C    0.951
    83   1 H    0.997 --    13 C    0.967
    84   1 H    0.999 --    13 C    0.953
    85   1 H    0.894 --    14 O    0.847
    86   1 H    0.883 --    15 O    0.826
    87   1 H    0.997 --    18 C    0.962
    88   1 H    0.993 --    18 C    0.955
    89   1 H    0.874 --    19 O    0.859
    90   1 H    1.000 --    20 C    0.933
    91   1 H    0.999 --    22 C    0.947
    92   1 H    0.997 --    23 C    0.957
    93   1 H    0.998 --    24 C    0.951
    94   1 H    0.991 --    25 C    0.947
    95   1 H    0.868 --    26 O    0.850
    96   1 H    0.857 --    28 O    0.835
    97   1 H    0.988 --    29 C    0.961
    98   1 H    0.992 --    29 C    0.960
    99   1 H    0.994 --    34 C    0.958
   100   1 H    0.994 --    36 C    0.956
   101   1 H    0.991 --    37 C    0.950
   102   1 H    0.996 --    38 C    0.961
   103   1 H    0.996 --    39 C    0.975
   104   1 H    0.990 --    39 C    0.950
   105   1 H    0.997 --    40 C    0.959
   106   1 H    0.998 --    41 C    0.965
   107   1 H    0.878 --    42 O    0.862
   108   1 H    0.998 --    43 C    0.960
   109   1 H    0.998 --    44 C    0.963
   110   1 H    0.998 --    45 C    0.958
   111   1 H    0.997 --    46 C    0.969
   112   1 H    0.998 --    46 C    0.971
   113   1 H    0.999 --    47 C    0.977
   114   1 H    0.999 --    47 C    0.967
   115   1 H    1.000 --    48 C    0.974
   116   1 H    0.999 --    48 C    0.977
   117   1 H    0.999 --    49 C    0.977
   118   1 H    0.998 --    49 C    0.968
   119   1 H    0.999 --    50 C    0.987
   120   1 H    0.999 --    50 C    0.987
   121   1 H    0.998 --    50 C    0.985
   122   1 H    0.882 --    51 O    0.835
   123   1 H    0.857 --    52 O    0.840
   124   1 H    1.000 --    53 C    0.945
   125   1 H    0.998 --    54 C    0.957
   126   1 H    0.997 --    55 C    0.953
   127   1 H    0.994 --    56 C    0.957
   128   1 H    0.998 --    57 C    0.929
   129   1 H    0.996 --    59 C    0.972
   130   1 H    0.994 --    59 C    0.963
   131   1 H    0.885 --    60 O    0.863
   132   1 H    0.865 --    61 O    0.841
   133   1 H    0.862 --    62 O    0.842
   134   1 H    0.899 --    63 O    0.856
   135   1 H    0.995 --    65 C    0.965
   136   1 H    0.995 --    66 C    0.965
   137   1 H    0.997 --    69 C    0.962
   138   1 H    0.997 --    72 C    0.967
   139   1 H    0.996 --    73 C    0.968
   140   1 H    0.996 --    74 C    0.968
   141   1 H    0.997 --    75 C    0.968
 ---------------------------------------------------------------------------

Topologies differ in total number of bonds
Writing topology from bond orders to xtbtopo.mol

molecular dipole:
                 x           y           z       tot (Debye)
 q only:        0.583       1.096       0.413
   full:        1.081       0.448       0.312       3.079
molecular quadrupole (traceless):
                xx          xy          yy          xz          yz          zz
 q only:       72.742      -9.411      -7.405     -16.585      16.052     -65.336
  q+dip:       65.317      -9.253       2.192     -12.097      30.128     -67.509
   full:       67.818      -7.018       3.137     -16.391      25.471     -70.954


           -------------------------------------------------
          | TOTAL ENERGY             -234.652887389457 Eh   |
          | GRADIENT NORM               0.136802554270 Eh/α |
          | HOMO-LUMO GAP               1.675099960190 eV   |
           -------------------------------------------------

------------------------------------------------------------------------
 * finished run on 2026/06/19 at 18:52:33.802     
------------------------------------------------------------------------
 total:
 * wall-time:     0 d,  0 h,  0 min,  0.320 sec
 *  cpu-time:     0 d,  0 h,  0 min,  4.884 sec
 * ratio c/w:    15.277 speedup
 SCF:
 * wall-time:     0 d,  0 h,  0 min,  0.263 sec
 *  cpu-time:     0 d,  0 h,  0 min,  4.154 sec
 * ratio c/w:    15.791 speedup

normal termination of xtb
