      -----------------------------------------------------------      
     |                   =====================                   |     
     |                           x T B                           |     
     |                   =====================                   |     
     |                         S. Grimme                         |     
     |          Mulliken Center for Theoretical Chemistry        |     
     |                    University of Bonn                     |     
      -----------------------------------------------------------      

   * xtb version 6.7.1 (edcfbbe) compiled by 'albert@albert-system' on 2024-07-22

   xtb is free software: you can redistribute it and/or modify it under
   the terms of the GNU Lesser General Public License as published by
   the Free Software Foundation, either version 3 of the License, or
   (at your option) any later version.
   
   xtb is distributed in the hope that it will be useful,
   but WITHOUT ANY WARRANTY; without even the implied warranty of
   MERCHANTABILITY or FITNESS FOR A PARTICULAR PURPOSE.  See the
   GNU Lesser General Public License for more details.
   
   Cite this work as:
   * C. Bannwarth, E. Caldeweyher, S. Ehlert, A. Hansen, P. Pracht,
     J. Seibert, S. Spicher, S. Grimme, WIREs Comput. Mol. Sci., 2020, 11,
     e01493. DOI: 10.1002/wcms.1493
   
   for GFN2-xTB:
   * C. Bannwarth, S. Ehlert and S. Grimme., J. Chem. Theory Comput., 2019,
     15, 1652-1671. DOI: 10.1021/acs.jctc.8b01176
   for GFN1-xTB:
   * S. Grimme, C. Bannwarth, P. Shushkov, J. Chem. Theory Comput., 2017,
     13, 1989-2009. DOI: 10.1021/acs.jctc.7b00118
   for GFN0-xTB:
   * P. Pracht, E. Caldeweyher, S. Ehlert, S. Grimme, ChemRxiv, 2019, preprint.
     DOI: 10.26434/chemrxiv.8326202.v1
   for GFN-FF:
   * S. Spicher and S. Grimme, Angew. Chem. Int. Ed., 2020, 59, 15665-15673.
     DOI: 10.1002/anie.202004239
   
   for ALPB and GBSA implicit solvation:
   * S. Ehlert, M. Stahn, S. Spicher, S. Grimme, J. Chem. Theory Comput.,
     2021, 17, 4250-4261. DOI: 10.1021/acs.jctc.1c00471
   
   for ddCOSMO and CPCM-X implicit solvation:
   * M. Stahn, S. Ehlert, S. Grimme, J. Phys. Chem. A,
     2023, XX, XXXX-XXXX. DOI: 10.1021/acs.jpca.3c04382
   
   for DFT-D4:
   * E. Caldeweyher, C. Bannwarth and S. Grimme, J. Chem. Phys., 2017,
     147, 034112. DOI: 10.1063/1.4993215
   * E. Caldeweyher, S. Ehlert, A. Hansen, H. Neugebauer, S. Spicher,
     C. Bannwarth and S. Grimme, J. Chem. Phys., 2019, 150, 154122.
     DOI: 10.1063/1.5090222
   * E. Caldeweyher, J.-M. Mewes, S. Ehlert and S. Grimme, Phys. Chem. Chem. Phys.
     2020, 22, 8499-8512. DOI: 10.1039/D0CP00502A
   
   for sTDA-xTB:
   * S. Grimme and C. Bannwarth, J. Chem. Phys., 2016, 145, 054103.
     DOI: 10.1063/1.4959605
   
   in the mass-spec context:
   * V. Asgeirsson, C. Bauer and S. Grimme, Chem. Sci., 2017, 8, 4879.
     DOI: 10.1039/c7sc00601b
   * J. Koopman and S. Grimme, ACS Omega 2019, 4, 12, 15120-15133.
     DOI: 10.1021/acsomega.9b02011
   
   for metadynamics refer to:
   * S. Grimme, J. Chem. Theory Comput., 2019, 155, 2847-2862
     DOI: 10.1021/acs.jctc.9b00143
   
   for SPH calculations refer to:
   * S. Spicher and S. Grimme, J. Chem. Theory Comput., 2021, 17, 1701-1714
     DOI: 10.1021/acs.jctc.0c01306
   
   for ONIOM refer to:
   * C. Plett, A. Katbashev, S. Ehlert, S. Grimme, M. Bursch,
     Phys. Chem. Chem. Phys., 2023, 25, 17860-17868. DOI: 10.1039/D3CP02178E
   
   for DIPRO refer to:
   * J. Kohn, N. Gildemeister, S. Grimme, D. Fazzi, A. Hansen,
     J. Chem. Phys., 2023, just accepted.
   
   for PTB refer to:
   * S. Grimme, M. Mueller, A. Hansen, J. Chem. Phys., 2023, 158, 124111.
     DOI: 10.1063/5.0137838
   
   with help from (in alphabetical order)
   P. Atkinson, C. Bannwarth, F. Bohle, G. Brandenburg, E. Caldeweyher
   M. Checinski, S. Dohm, S. Ehlert, S. Ehrlich, I. Gerasimov, C. Hölzer
   A. Katbashev, J. Kohn, J. Koopman, C. Lavigne, S. Lehtola, F. März, M. Müller,
   F. Musil, H. Neugebauer, J. Pisarek, C. Plett, P. Pracht, F. Pultar,
   J. Seibert, P. Shushkov, S. Spicher, M. Stahn, M. Steiner, T. Strunk,
   J. Stückrath, T. Rose, and J. Unsleber
   
 * started run on 2026/06/19 at 18:52:51.017     
   ID    Z sym.   atoms
    1    6 C      1-11, 13, 18, 20, 22-25, 29, 31, 33, 34, 36-41, 43-50,
                  53-57, 59, 64-75, 77-79
    2    8 O      12, 14-17, 19, 21, 26-28, 30, 32, 35, 42, 51, 52, 58,
                  60-63, 76
    3    1 H      80-153

           -------------------------------------------------
          |                Calculation Setup                |
           -------------------------------------------------

          program call               : xtb PAPU-0085/conf02.xyz --gfn 2 --alpb octanol --chrg 0 --uhf 0 --namespace PAPU-0085/conf02_octanol
          hostname                   : cpu10
          calculation namespace      : PAPU-0085/conf02_octanol
          coordinate file            : PAPU-0085/conf02.xyz
          omp threads                :                    16


           -------------------------------------------------
          |                 G F N 2 - x T B                 |
           -------------------------------------------------

        Reference                      10.1021/acs.jctc.8b01176
      * Hamiltonian:
        H0-scaling (s, p, d)           1.850000    2.230000    2.230000
        zeta-weighting                 0.500000
      * Dispersion:
        s8                             2.700000
        a1                             0.520000
        a2                             5.000000
        s9                             5.000000
      * Repulsion:
        kExp                           1.500000    1.000000
        rExp                           1.000000
      * Coulomb:
        alpha                          2.000000
        third order                    shell-resolved
        anisotropic                    true
        a3                             3.000000
        a5                             4.000000
        cn-shift                       1.200000
        cn-exp                         4.000000
        max-rad                        5.000000

      * Solvation model:               ALPB
        Solvent                        octanol
        Parameter file                 internal GFN2-xTB/ALPB
        Dielectric constant                9.8629E+00
        Reference state                gsolv [1 M gas/solution]
        Free energy shift                  2.3397E-03 Eh       1.4682E+00 kcal/mol
        Temperature                        2.9815E+02 K
        Density                            8.3000E-01 kg/L
        Solvent mass                       1.3023E+02 g/mol
        Interaction kernel             P16
        Born radius scaling (c1)           1.5898E+00
        Born radii integrator          GBOBC
        Born offset                        0.0000E+00 a0       0.0000E+00 AA
        H-bond correction              true
        Ion screening                  false
        Surface tension                    1.0000E-05 Eh       1.5569E+01 dyn/cm
        Grid points                               230 per atom

          ...................................................
          :                      SETUP                      :
          :.................................................:
          :  # basis functions                 390          :
          :  # atomic orbitals                 390          :
          :  # shells                          232          :
          :  # electrons                       434          :
          :  max. iterations                   250          :
          :  Hamiltonian                  GFN2-xTB          :
          :  restarted?                      false          :
          :  GBSA solvation                   true          :
          :  PC potential                    false          :
          :  electronic temp.          300.0000000     K    :
          :  accuracy                    1.0000000          :
          :  -> integral cutoff          0.2500000E+02      :
          :  -> integral neglect         0.1000000E-07      :
          :  -> SCF convergence          0.1000000E-05 Eh   :
          :  -> wf. convergence          0.1000000E-03 e    :
          :  Broyden damping             0.4000000          :
          :  net charge                          0          :
          :  unpaired electrons                  0          :
          ...................................................

 iter      E             dE          RMSdq      gap      omega  full diag
   1   -251.7416127 -0.251742E+03  0.441E+00    2.40       0.0  T
   2   -252.0162002 -0.274587E+00  0.242E+00    1.31       1.0  T
   3   -252.0082804  0.791980E-02  0.980E-01    1.23       1.0  T
   4   -252.0401294 -0.318491E-01  0.264E-01    0.91       1.0  T
   5   -252.0439140 -0.378460E-02  0.104E-01    0.95       1.0  T
   6   -252.0442650 -0.351027E-03  0.553E-02    0.99       1.0  T
   7   -252.0443654 -0.100309E-03  0.266E-02    0.99       1.0  T
   8   -252.0444004 -0.350112E-04  0.116E-02    0.99       1.0  T
   9   -252.0444082 -0.784237E-05  0.389E-03    0.99       2.1  T
  10   -252.0444088 -0.575237E-06  0.206E-03    0.99       3.9  T
  11   -252.0444089 -0.123305E-06  0.106E-03    0.99       7.6  T
  12   -252.0444090 -0.467453E-07  0.444E-04    0.99      18.2  T
  13   -252.0444090 -0.916003E-08  0.205E-04    0.99      39.5  T

   *** convergence criteria satisfied after 13 iterations ***

         #    Occupation            Energy/Eh            Energy/eV
      -------------------------------------------------------------
         1        2.0000           -0.8076832             -21.9782
       ...           ...                  ...                  ...
       211        2.0000           -0.4113007             -11.1921
       212        2.0000           -0.4099860             -11.1563
       213        2.0000           -0.4044506             -11.0057
       214        2.0000           -0.4008934             -10.9089
       215        2.0000           -0.3945283             -10.7357
       216        2.0000           -0.3799549             -10.3391
       217        2.0000           -0.3685803             -10.0296 (HOMO)
       218                         -0.3323118              -9.0427 (LUMO)
       219                         -0.2908712              -7.9150
       220                         -0.2466391              -6.7114
       221                         -0.2448890              -6.6638
       222                         -0.2401316              -6.5343
       ...                                ...                  ...
       390                          0.6898387              18.7715
      -------------------------------------------------------------
                  HL-Gap            0.0362685 Eh            0.9869 eV
             Fermi-level           -0.3504461 Eh           -9.5361 eV

 SCC (total)                   0 d,  0 h,  0 min,  0.298 sec
 SCC setup                      ...        0 min,  0.004 sec (  1.421%)
 Dispersion                     ...        0 min,  0.005 sec (  1.654%)
 classical contributions        ...        0 min,  0.000 sec (  0.080%)
 integral evaluation            ...        0 min,  0.016 sec (  5.397%)
 iterations                     ...        0 min,  0.228 sec ( 76.402%)
 molecular gradient             ...        0 min,  0.044 sec ( 14.716%)
 printout                       ...        0 min,  0.001 sec (  0.313%)

         :::::::::::::::::::::::::::::::::::::::::::::::::::::
         ::                     SUMMARY                     ::
         :::::::::::::::::::::::::::::::::::::::::::::::::::::
         :: total energy            -249.301657549411 Eh    ::
         :: total w/o Gsasa/hb      -249.240345815401 Eh    ::
         :: gradient norm              0.143038179625 Eh/a0 ::
         :: HOMO-LUMO gap              0.986916782081 eV    ::
         ::.................................................::
         :: SCC energy              -252.026797841996 Eh    ::
         :: -> isotropic ES            0.531090963814 Eh    ::
         :: -> anisotropic ES         -0.020432289094 Eh    ::
         :: -> anisotropic XC          0.027453759485 Eh    ::
         :: -> dispersion             -0.218369365513 Eh    ::
         :: -> Gsolv                  -0.087865479375 Eh    ::
         ::    -> Gelec               -0.026553745364 Eh    ::
         ::    -> Gsasa               -0.031495071701 Eh    ::
         ::    -> Ghb                 -0.032156331685 Eh    ::
         ::    -> Gshift               0.002339669376 Eh    ::
         :: repulsion energy           2.725140292585 Eh    ::
         :: add. restraining           0.000000000000 Eh    ::
         :: total charge               0.000000000000 e     ::
         :::::::::::::::::::::::::::::::::::::::::::::::::::::

           -------------------------------------------------
          |                Property Printout                |
           -------------------------------------------------

    * Orbital Energies and Occupations

         #    Occupation            Energy/Eh            Energy/eV
      -------------------------------------------------------------
         1        2.0000           -0.8076832             -21.9782
       ...           ...                  ...                  ...
       205        2.0000           -0.4218333             -11.4787
       206        2.0000           -0.4203473             -11.4382
       207        2.0000           -0.4185927             -11.3905
       208        2.0000           -0.4175008             -11.3608
       209        2.0000           -0.4169636             -11.3462
       210        2.0000           -0.4134799             -11.2514
       211        2.0000           -0.4113007             -11.1921
       212        2.0000           -0.4099860             -11.1563
       213        2.0000           -0.4044506             -11.0057
       214        2.0000           -0.4008934             -10.9089
       215        2.0000           -0.3945283             -10.7357
       216        2.0000           -0.3799549             -10.3391
       217        2.0000           -0.3685803             -10.0296 (HOMO)
       218                         -0.3323118              -9.0427 (LUMO)
       219                         -0.2908712              -7.9150
       220                         -0.2466391              -6.7114
       221                         -0.2448890              -6.6638
       222                         -0.2401316              -6.5343
       223                         -0.2374869              -6.4623
       224                         -0.2367360              -6.4419
       225                         -0.2351789              -6.3995
       226                         -0.2262074              -6.1554
       227                         -0.1970744              -5.3627
       228                         -0.1782581              -4.8507
       ...                                ...                  ...
       390                          0.6898387              18.7715
      -------------------------------------------------------------
                  HL-Gap            0.0362685 Eh            0.9869 eV
             Fermi-level           -0.3504461 Eh           -9.5361 eV

     #   Z          covCN         q      C6AA      α(0)
     1   6 C        2.840     0.142    24.906     8.179
     2   6 C        2.964    -0.047    29.164     8.858
     3   6 C        2.964    -0.003    28.086     8.693
     4   6 C        2.932    -0.097    30.428     9.046
     5   6 C        2.836     0.147    24.804     8.161
     6   6 C        2.922    -0.083    30.074     8.993
     7   6 C        3.733     0.100    19.010     6.223
     8   6 C        3.718     0.089    19.211     6.261
     9   6 C        3.746     0.100    18.996     6.217
    10   6 C        3.743     0.089    19.178     6.248
    11   6 C        3.734     0.090    19.175     6.250
    12   8 O        1.696    -0.322    19.390     5.945
    13   6 C        3.683     0.070    19.611     6.341
    14   8 O        1.653    -0.488    22.630     6.422
    15   8 O        1.651    -0.489    22.659     6.426
    16   8 O        1.697    -0.338    19.680     5.989
    17   8 O        1.701    -0.319    19.333     5.936
    18   6 C        3.675     0.073    19.578     6.340
    19   8 O        1.652    -0.471    22.277     6.371
    20   6 C        3.629     0.231    17.365     6.001
    21   8 O        1.696    -0.347    19.838     6.013
    22   6 C        3.738     0.091    19.154     6.245
    23   6 C        3.724     0.086    19.253     6.266
    24   6 C        3.721     0.085    19.274     6.270
    25   6 C        3.732     0.081    19.315     6.273
    26   8 O        1.652    -0.473    22.312     6.376
    27   8 O        1.697    -0.330    19.534     5.967
    28   8 O        1.653    -0.429    21.426     6.249
    29   6 C        3.727     0.059    19.683     6.334
    30   8 O        1.703    -0.254    18.211     5.762
    31   6 C        2.747     0.353    21.011     7.506
    32   8 O        0.857    -0.446    22.615     6.376
    33   6 C        2.720     0.347    21.098     7.519
    34   6 C        2.898    -0.117    30.981     9.126
    35   8 O        0.858    -0.505    23.890     6.553
    36   6 C        2.902     0.009    27.826     8.649
    37   6 C        2.898    -0.050    29.246     8.867
    38   6 C        2.897    -0.000    28.033     8.681
    39   6 C        3.804    -0.090    22.222     6.711
    40   6 C        3.727     0.113    18.818     6.193
    41   6 C        2.895    -0.068    29.689     8.934
    42   8 O        1.651    -0.493    22.748     6.438
    43   6 C        2.897    -0.043    29.058     8.838
    44   6 C        2.899    -0.050    29.244     8.867
    45   6 C        2.894    -0.049    29.209     8.861
    46   6 C        3.805    -0.061    21.664     6.626
    47   6 C        3.800    -0.058    21.618     6.620
    48   6 C        3.800    -0.060    21.653     6.625
    49   6 C        3.799    -0.056    21.579     6.614
    50   6 C        3.750    -0.108    22.621     6.783
    51   8 O        1.655    -0.446    21.762     6.297
    52   8 O        1.656    -0.430    21.446     6.252
    53   6 C        3.631     0.221    17.497     6.022
    54   6 C        3.722     0.095    19.115     6.244
    55   6 C        3.721     0.085    19.279     6.271
    56   6 C        3.719     0.072    19.484     6.305
    57   6 C        3.743     0.083    19.274     6.263
    58   8 O        1.696    -0.357    20.020     6.041
    59   6 C        3.674     0.063    19.754     6.369
    60   8 O        1.651    -0.462    22.083     6.344
    61   8 O        1.652    -0.459    22.039     6.337
    62   8 O        1.652    -0.483    22.535     6.408
    63   8 O        1.654    -0.475    22.358     6.383
    64   6 C        2.975    -0.028    28.696     8.787
    65   6 C        2.925    -0.030    28.753     8.793
    66   6 C        2.926    -0.034    28.839     8.807
    67   6 C        2.977     0.021    27.522     8.605
    68   6 C        2.926    -0.039    28.967     8.826
    69   6 C        2.924    -0.025    28.630     8.775
    70   6 C        2.976    -0.006    28.174     8.707
    71   6 C        2.924    -0.041    29.018     8.834
    72   6 C        2.920    -0.056    29.382     8.889
    73   6 C        2.858     0.146    24.820     8.166
    74   6 C        2.919    -0.065    29.612     8.924
    75   6 C        2.923    -0.039    28.977     8.828
    76   8 O        1.701    -0.308    19.125     5.904
    77   6 C        3.692     0.073    19.530     6.323
    78   6 C        3.798    -0.069    21.830     6.653
    79   6 C        3.751    -0.117    22.807     6.811
    80   1 H        0.926     0.066     2.133     2.284
    81   1 H        0.926     0.083     1.944     2.180
    82   1 H        0.924     0.044     2.396     2.421
    83   1 H        0.924     0.049     2.328     2.386
    84   1 H        0.924     0.050     2.318     2.381
    85   1 H        0.923     0.076     2.020     2.223
    86   1 H        0.923     0.047     2.362     2.404
    87   1 H        0.924     0.059     2.214     2.327
    88   1 H        0.924     0.037     2.494     2.470
    89   1 H        0.804     0.347     0.595     1.212
    90   1 H        0.803     0.344     0.603     1.220
    91   1 H        0.924     0.040     2.443     2.444
    92   1 H        0.924     0.070     2.080     2.256
    93   1 H        0.801     0.355     0.577     1.194
    94   1 H        0.923     0.066     2.132     2.284
    95   1 H        0.923     0.049     2.330     2.387
    96   1 H        0.923     0.092     1.861     2.133
    97   1 H        0.923     0.050     2.316     2.380
    98   1 H        0.924     0.039     2.465     2.455
    99   1 H        0.802     0.347     0.596     1.213
   100   1 H        0.802     0.309     0.695     1.310
   101   1 H        0.924     0.096     1.827     2.114
   102   1 H        0.924     0.094     1.844     2.124
   103   1 H        0.926     0.101     1.771     2.081
   104   1 H        0.926     0.089     1.891     2.150
   105   1 H        0.926     0.087     1.912     2.163
   106   1 H        0.926     0.082     1.959     2.189
   107   1 H        0.924     0.107     1.724     2.053
   108   1 H        0.924     0.074     2.040     2.234
   109   1 H        0.922     0.053     2.282     2.363
   110   1 H        0.926     0.044     2.397     2.421
   111   1 H        0.803     0.322     0.659     1.275
   112   1 H        0.926     0.049     2.338     2.391
   113   1 H        0.926     0.036     2.500     2.473
   114   1 H        0.926     0.063     2.166     2.302
   115   1 H        0.924     0.044     2.392     2.419
   116   1 H        0.924     0.029     2.596     2.520
   117   1 H        0.924     0.037     2.488     2.467
   118   1 H        0.924     0.031     2.567     2.506
   119   1 H        0.924     0.030     2.584     2.514
   120   1 H        0.924     0.025     2.663     2.552
   121   1 H        0.924     0.032     2.558     2.501
   122   1 H        0.924     0.031     2.574     2.509
   123   1 H        0.924     0.033     2.538     2.491
   124   1 H        0.924     0.032     2.560     2.502
   125   1 H        0.924     0.038     2.478     2.462
   126   1 H        0.803     0.344     0.603     1.219
   127   1 H        0.804     0.363     0.560     1.175
   128   1 H        0.923     0.064     2.153     2.295
   129   1 H        0.924     0.002     3.029     2.722
   130   1 H        0.923     0.076     2.025     2.225
   131   1 H        0.923     0.081     1.967     2.193
   132   1 H        0.923     0.045     2.378     2.412
   133   1 H        0.924     0.081     1.967     2.193
   134   1 H        0.924     0.061     2.193     2.316
   135   1 H        0.802     0.317     0.672     1.288
   136   1 H        0.802     0.333     0.629     1.246
   137   1 H        0.802     0.336     0.621     1.238
   138   1 H        0.803     0.336     0.622     1.239
   139   1 H        0.926     0.058     2.227     2.333
   140   1 H        0.926     0.054     2.270     2.356
   141   1 H        0.926     0.062     2.170     2.304
   142   1 H        0.926     0.063     2.168     2.302
   143   1 H        0.926     0.053     2.284     2.364
   144   1 H        0.926     0.057     2.229     2.335
   145   1 H        0.926     0.057     2.232     2.336
   146   1 H        0.926     0.055     2.262     2.352
   147   1 H        0.924     0.054     2.272     2.357
   148   1 H        0.924     0.035     2.510     2.478
   149   1 H        0.924     0.056     2.248     2.345
   150   1 H        0.924     0.044     2.401     2.423
   151   1 H        0.924     0.041     2.430     2.438
   152   1 H        0.924     0.052     2.296     2.369
   153   1 H        0.924     0.040     2.446     2.446

 Mol. C6AA /au·bohr⁶  :     230486.142475
 Mol. C8AA /au·bohr⁸  :    5281102.841880
 Mol. α(0) /au        :        724.848500


Wiberg/Mayer (AO) data.
largest (>0.10) Wiberg bond orders for each atom

 ---------------------------------------------------------------------------
     #   Z sym  total        # sym  WBO       # sym  WBO       # sym  WBO
 ---------------------------------------------------------------------------
     1   6 C    3.944 --     6 C    1.395     2 C    1.337    51 O    1.066
     2   6 C    3.969 --     3 C    1.392     1 C    1.337     7 C    0.984
     3   6 C    3.987 --     4 C    1.424     2 C    1.392    13 C    0.997
     4   6 C    3.980 --     3 C    1.424     5 C    1.362    80 H    0.961
     5   6 C    3.946 --     6 C    1.381     4 C    1.362    52 O    1.075
     6   6 C    3.981 --     1 C    1.395     5 C    1.381    81 H    0.962
     7   6 C    3.940 --     2 C    0.984    12 O    0.960    82 H    0.953
                             8 C    0.950
     8   6 C    3.945 --    15 O    0.985     9 C    0.965     7 C    0.950
                            83 H    0.946
     9   6 C    3.924 --    10 C    0.969     8 C    0.965    84 H    0.953
                            17 O    0.928
    10   6 C    3.928 --     9 C    0.969    11 C    0.960    16 O    0.950
                            85 H    0.946
    11   6 C    3.947 --    12 O    0.975    18 C    0.972    10 C    0.960
                            86 H    0.957
    12   8 O    2.083 --    11 C    0.975     7 C    0.960
    13   6 C    3.953 --     3 C    0.997    14 O    0.985    88 H    0.963
                            87 H    0.958
    14   8 O    1.940 --    13 C    0.985    89 H    0.863
    15   8 O    1.959 --     8 C    0.985    90 H    0.822
    16   8 O    2.100 --    20 C    0.971    10 C    0.950
    17   8 O    2.258 --    33 C    1.056     9 C    0.928    35 O    0.130
    18   6 C    3.963 --    19 O    1.022    11 C    0.972    92 H    0.968
                            91 H    0.967
    19   8 O    1.933 --    18 C    1.022    93 H    0.839
    20   6 C    3.918 --    16 O    0.971    21 O    0.970    25 C    0.950
                            94 H    0.949
    21   8 O    2.072 --    20 C    0.970    22 C    0.943
    22   6 C    3.931 --    29 C    0.980    23 C    0.963    95 H    0.956
                            21 O    0.943
    23   6 C    3.959 --    28 O    1.006    24 C    0.964    22 C    0.963
                            96 H    0.952
    24   6 C    3.961 --    26 O    0.995    23 C    0.964    25 C    0.963
                            97 H    0.958
    25   6 C    3.942 --    24 C    0.963    27 O    0.959    20 C    0.950
                            98 H    0.942
    26   8 O    1.949 --    24 C    0.995    99 H    0.827
    27   8 O    2.096 --    53 C    0.989    25 C    0.959
    28   8 O    2.003 --    23 C    1.006   100 H    0.852
    29   6 C    3.928 --    22 C    0.980    30 O    0.968   101 H    0.960
                           102 H    0.953
    30   8 O    2.292 --    31 C    1.088    29 C    0.968    32 O    0.154
    31   6 C    3.901 --    32 O    1.710    30 O    1.088    64 C    1.018
    32   8 O    2.012 --    31 C    1.710    30 O    0.154
    33   6 C    3.887 --    35 O    1.557    34 C    1.126    17 O    1.056
    34   6 C    3.967 --    36 C    1.663    33 C    1.126   103 H    0.932
    35   8 O    1.973 --    33 C    1.557    17 O    0.130
    36   6 C    3.963 --    34 C    1.663    37 C    1.172   104 H    0.954
    37   6 C    3.982 --    38 C    1.741    36 C    1.172   105 H    0.954
    38   6 C    3.967 --    37 C    1.741    39 C    1.058   106 H    0.941
    39   6 C    3.981 --    38 C    1.058   108 H    0.963    40 C    0.953
                           107 H    0.924
    40   6 C    3.949 --    41 C    1.000    42 O    0.983   109 H    0.960
                            39 C    0.953
    41   6 C    3.981 --    43 C    1.837    40 C    1.000   110 H    0.965
                            45 C    0.129
    42   8 O    1.936 --    40 C    0.983   111 H    0.860
    43   6 C    3.989 --    41 C    1.837    44 C    1.123   112 H    0.952
    44   6 C    3.989 --    45 C    1.831    43 C    1.123   113 H    0.962
    45   6 C    3.979 --    44 C    1.831    46 C    1.028   114 H    0.949
                            41 C    0.129
    46   6 C    3.996 --    45 C    1.028    47 C    0.990   116 H    0.978
                           115 H    0.960
    47   6 C    3.990 --    48 C    1.008    46 C    0.990   118 H    0.977
                           117 H    0.975
    48   6 C    3.996 --    47 C    1.008    49 C    1.007   119 H    0.975
                           120 H    0.975
    49   6 C    3.997 --    50 C    1.021    48 C    1.007   121 H    0.977
                           122 H    0.977
    50   6 C    3.996 --    49 C    1.021   124 H    0.987   125 H    0.986
                           123 H    0.984
    51   8 O    2.061 --     1 C    1.066   126 H    0.823
    52   8 O    2.089 --     5 C    1.075   127 H    0.849
    53   6 C    3.918 --    27 O    0.989    58 O    0.952    54 C    0.949
                           128 H    0.946
    54   6 C    3.964 --    62 O    1.003    55 C    0.966    53 C    0.949
                           129 H    0.935
    55   6 C    3.960 --    61 O    1.009    54 C    0.966    56 C    0.962
                           130 H    0.958
    56   6 C    3.953 --    60 O    0.992    57 C    0.962    55 C    0.962
                           131 H    0.955
    57   6 C    3.928 --    59 C    0.981    56 C    0.962   132 H    0.955
                            58 O    0.937
    58   8 O    2.071 --    53 C    0.952    57 C    0.937
    59   6 C    3.958 --    63 O    1.015    57 C    0.981   133 H    0.965
                           134 H    0.961
    60   8 O    1.979 --    56 C    0.992   135 H    0.845
    61   8 O    1.958 --    55 C    1.009   136 H    0.850
    62   8 O    1.930 --    54 C    1.003   137 H    0.834
    63   8 O    1.930 --    59 C    1.015   138 H    0.838
    64   6 C    3.976 --    69 C    1.371    65 C    1.370    31 C    1.018
    65   6 C    3.988 --    66 C    1.462    64 C    1.370   139 H    0.958
    66   6 C    3.988 --    65 C    1.462    67 C    1.367   140 H    0.964
    67   6 C    3.984 --    68 C    1.371    66 C    1.367    70 C    1.059
    68   6 C    3.986 --    69 C    1.474    67 C    1.371   141 H    0.963
    69   6 C    3.986 --    68 C    1.474    64 C    1.371   142 H    0.964
    70   6 C    3.985 --    75 C    1.374    71 C    1.367    67 C    1.059
    71   6 C    3.986 --    72 C    1.479    70 C    1.367   143 H    0.958
    72   6 C    3.987 --    71 C    1.479    73 C    1.356   144 H    0.966
    73   6 C    3.926 --    74 C    1.360    72 C    1.356    76 O    1.048
    74   6 C    3.986 --    75 C    1.469    73 C    1.360   145 H    0.960
    75   6 C    3.987 --    74 C    1.469    70 C    1.374   146 H    0.966
    76   8 O    2.190 --    73 C    1.048    77 C    0.960
    77   6 C    3.936 --    78 C    0.999   147 H    0.969   148 H    0.964
                            76 O    0.960
    78   6 C    3.991 --    79 C    1.020    77 C    0.999   150 H    0.976
                           149 H    0.966
    79   6 C    3.994 --    78 C    1.020   153 H    0.987   151 H    0.987
                           152 H    0.985
    80   1 H    0.995 --     4 C    0.961
    81   1 H    0.992 --     6 C    0.962
    82   1 H    0.997 --     7 C    0.953
    83   1 H    0.997 --     8 C    0.946
    84   1 H    0.997 --     9 C    0.953
    85   1 H    0.994 --    10 C    0.946
    86   1 H    0.998 --    11 C    0.957
    87   1 H    0.996 --    13 C    0.958
    88   1 H    0.998 --    13 C    0.963
    89   1 H    0.879 --    14 O    0.863
    90   1 H    0.881 --    15 O    0.822
    91   1 H    0.998 --    18 C    0.967
    92   1 H    0.994 --    18 C    0.968
    93   1 H    0.874 --    19 O    0.839
    94   1 H    0.995 --    20 C    0.949
    95   1 H    0.997 --    22 C    0.956
    96   1 H    0.991 --    23 C    0.952
    97   1 H    0.997 --    24 C    0.958
    98   1 H    0.998 --    25 C    0.942
    99   1 H    0.879 --    26 O    0.827
   100   1 H    0.904 --    28 O    0.852
   101   1 H    0.990 --    29 C    0.960
   102   1 H    0.991 --    29 C    0.953
   103   1 H    0.990 --    34 C    0.932
   104   1 H    0.992 --    36 C    0.954
   105   1 H    0.992 --    37 C    0.954
   106   1 H    0.993 --    38 C    0.941
   107   1 H    0.983 --    39 C    0.924
   108   1 H    0.993 --    39 C    0.963
   109   1 H    0.995 --    40 C    0.960
   110   1 H    0.997 --    41 C    0.965
   111   1 H    0.896 --    42 O    0.860
   112   1 H    0.998 --    43 C    0.952
   113   1 H    0.998 --    44 C    0.962
   114   1 H    0.996 --    45 C    0.949
   115   1 H    0.997 --    46 C    0.960
   116   1 H    0.999 --    46 C    0.978
   117   1 H    0.999 --    47 C    0.975
   118   1 H    0.999 --    47 C    0.977
   119   1 H    0.999 --    48 C    0.975
   120   1 H    0.999 --    48 C    0.975
   121   1 H    0.999 --    49 C    0.977
   122   1 H    0.999 --    49 C    0.977
   123   1 H    0.999 --    50 C    0.984
   124   1 H    0.999 --    50 C    0.987
   125   1 H    0.998 --    50 C    0.986
   126   1 H    0.881 --    51 O    0.823
   127   1 H    0.868 --    52 O    0.849
   128   1 H    0.995 --    53 C    0.946
   129   1 H    1.000 --    54 C    0.935
   130   1 H    0.994 --    55 C    0.958
   131   1 H    0.993 --    56 C    0.955
   132   1 H    0.998 --    57 C    0.955
   133   1 H    0.993 --    59 C    0.965
   134   1 H    0.995 --    59 C    0.961
   135   1 H    0.899 --    60 O    0.845
   136   1 H    0.889 --    61 O    0.850
   137   1 H    0.887 --    62 O    0.834
   138   1 H    0.887 --    63 O    0.838
   139   1 H    0.996 --    65 C    0.958
   140   1 H    0.996 --    66 C    0.964
   141   1 H    0.996 --    68 C    0.963
   142   1 H    0.995 --    69 C    0.964
   143   1 H    0.997 --    71 C    0.958
   144   1 H    0.996 --    72 C    0.966
   145   1 H    0.996 --    74 C    0.960
   146   1 H    0.997 --    75 C    0.966
   147   1 H    0.997 --    77 C    0.969
   148   1 H    0.998 --    77 C    0.964
   149   1 H    0.997 --    78 C    0.966
   150   1 H    0.998 --    78 C    0.976
   151   1 H    0.998 --    79 C    0.987
   152   1 H    0.997 --    79 C    0.985
   153   1 H    0.998 --    79 C    0.987
 ---------------------------------------------------------------------------

Topologies differ in total number of bonds
Writing topology from bond orders to xtbtopo.mol

molecular dipole:
                 x           y           z       tot (Debye)
 q only:       -0.896      -2.850      -0.814
   full:       -0.726      -2.321      -1.080       6.763
molecular quadrupole (traceless):
                xx          xy          yy          xz          yz          zz
 q only:       64.203       5.647     -36.098      33.131      -7.075     -28.105
  q+dip:       60.817      24.344     -43.123      37.786      -4.291     -17.694
   full:       60.181      24.535     -38.380      37.515      -3.672     -21.800


           -------------------------------------------------
          | TOTAL ENERGY             -249.301657549411 Eh   |
          | GRADIENT NORM               0.143038179625 Eh/α |
          | HOMO-LUMO GAP               0.986916782081 eV   |
           -------------------------------------------------

------------------------------------------------------------------------
 * finished run on 2026/06/19 at 18:52:51.375     
------------------------------------------------------------------------
 total:
 * wall-time:     0 d,  0 h,  0 min,  0.358 sec
 *  cpu-time:     0 d,  0 h,  0 min,  5.475 sec
 * ratio c/w:    15.308 speedup
 SCF:
 * wall-time:     0 d,  0 h,  0 min,  0.299 sec
 *  cpu-time:     0 d,  0 h,  0 min,  4.712 sec
 * ratio c/w:    15.747 speedup

normal termination of xtb
