      -----------------------------------------------------------      
     |                   =====================                   |     
     |                           x T B                           |     
     |                   =====================                   |     
     |                         S. Grimme                         |     
     |          Mulliken Center for Theoretical Chemistry        |     
     |                    University of Bonn                     |     
      -----------------------------------------------------------      

   * xtb version 6.7.1 (edcfbbe) compiled by 'albert@albert-system' on 2024-07-22

   xtb is free software: you can redistribute it and/or modify it under
   the terms of the GNU Lesser General Public License as published by
   the Free Software Foundation, either version 3 of the License, or
   (at your option) any later version.
   
   xtb is distributed in the hope that it will be useful,
   but WITHOUT ANY WARRANTY; without even the implied warranty of
   MERCHANTABILITY or FITNESS FOR A PARTICULAR PURPOSE.  See the
   GNU Lesser General Public License for more details.
   
   Cite this work as:
   * C. Bannwarth, E. Caldeweyher, S. Ehlert, A. Hansen, P. Pracht,
     J. Seibert, S. Spicher, S. Grimme, WIREs Comput. Mol. Sci., 2020, 11,
     e01493. DOI: 10.1002/wcms.1493
   
   for GFN2-xTB:
   * C. Bannwarth, S. Ehlert and S. Grimme., J. Chem. Theory Comput., 2019,
     15, 1652-1671. DOI: 10.1021/acs.jctc.8b01176
   for GFN1-xTB:
   * S. Grimme, C. Bannwarth, P. Shushkov, J. Chem. Theory Comput., 2017,
     13, 1989-2009. DOI: 10.1021/acs.jctc.7b00118
   for GFN0-xTB:
   * P. Pracht, E. Caldeweyher, S. Ehlert, S. Grimme, ChemRxiv, 2019, preprint.
     DOI: 10.26434/chemrxiv.8326202.v1
   for GFN-FF:
   * S. Spicher and S. Grimme, Angew. Chem. Int. Ed., 2020, 59, 15665-15673.
     DOI: 10.1002/anie.202004239
   
   for ALPB and GBSA implicit solvation:
   * S. Ehlert, M. Stahn, S. Spicher, S. Grimme, J. Chem. Theory Comput.,
     2021, 17, 4250-4261. DOI: 10.1021/acs.jctc.1c00471
   
   for ddCOSMO and CPCM-X implicit solvation:
   * M. Stahn, S. Ehlert, S. Grimme, J. Phys. Chem. A,
     2023, XX, XXXX-XXXX. DOI: 10.1021/acs.jpca.3c04382
   
   for DFT-D4:
   * E. Caldeweyher, C. Bannwarth and S. Grimme, J. Chem. Phys., 2017,
     147, 034112. DOI: 10.1063/1.4993215
   * E. Caldeweyher, S. Ehlert, A. Hansen, H. Neugebauer, S. Spicher,
     C. Bannwarth and S. Grimme, J. Chem. Phys., 2019, 150, 154122.
     DOI: 10.1063/1.5090222
   * E. Caldeweyher, J.-M. Mewes, S. Ehlert and S. Grimme, Phys. Chem. Chem. Phys.
     2020, 22, 8499-8512. DOI: 10.1039/D0CP00502A
   
   for sTDA-xTB:
   * S. Grimme and C. Bannwarth, J. Chem. Phys., 2016, 145, 054103.
     DOI: 10.1063/1.4959605
   
   in the mass-spec context:
   * V. Asgeirsson, C. Bauer and S. Grimme, Chem. Sci., 2017, 8, 4879.
     DOI: 10.1039/c7sc00601b
   * J. Koopman and S. Grimme, ACS Omega 2019, 4, 12, 15120-15133.
     DOI: 10.1021/acsomega.9b02011
   
   for metadynamics refer to:
   * S. Grimme, J. Chem. Theory Comput., 2019, 155, 2847-2862
     DOI: 10.1021/acs.jctc.9b00143
   
   for SPH calculations refer to:
   * S. Spicher and S. Grimme, J. Chem. Theory Comput., 2021, 17, 1701-1714
     DOI: 10.1021/acs.jctc.0c01306
   
   for ONIOM refer to:
   * C. Plett, A. Katbashev, S. Ehlert, S. Grimme, M. Bursch,
     Phys. Chem. Chem. Phys., 2023, 25, 17860-17868. DOI: 10.1039/D3CP02178E
   
   for DIPRO refer to:
   * J. Kohn, N. Gildemeister, S. Grimme, D. Fazzi, A. Hansen,
     J. Chem. Phys., 2023, just accepted.
   
   for PTB refer to:
   * S. Grimme, M. Mueller, A. Hansen, J. Chem. Phys., 2023, 158, 124111.
     DOI: 10.1063/5.0137838
   
   with help from (in alphabetical order)
   P. Atkinson, C. Bannwarth, F. Bohle, G. Brandenburg, E. Caldeweyher
   M. Checinski, S. Dohm, S. Ehlert, S. Ehrlich, I. Gerasimov, C. Hölzer
   A. Katbashev, J. Kohn, J. Koopman, C. Lavigne, S. Lehtola, F. März, M. Müller,
   F. Musil, H. Neugebauer, J. Pisarek, C. Plett, P. Pracht, F. Pultar,
   J. Seibert, P. Shushkov, S. Spicher, M. Stahn, M. Steiner, T. Strunk,
   J. Stückrath, T. Rose, and J. Unsleber
   
 * started run on 2026/06/19 at 18:52:52.857     
   ID    Z sym.   atoms
    1    6 C      1-11, 13, 18, 20, 22-25, 29, 31, 33, 34, 36-41, 43-50,
                  53-57, 59, 64-75, 77-79
    2    8 O      12, 14-17, 19, 21, 26-28, 30, 32, 35, 42, 51, 52, 58,
                  60-63, 76
    3    1 H      80-153

           -------------------------------------------------
          |                Calculation Setup                |
           -------------------------------------------------

          program call               : xtb PAPU-0085/conf05.xyz --gfn 2 --alpb water --chrg 0 --uhf 0 --namespace PAPU-0085/conf05_water
          hostname                   : cpu10
          calculation namespace      : PAPU-0085/conf05_water
          coordinate file            : PAPU-0085/conf05.xyz
          omp threads                :                    16


           -------------------------------------------------
          |                 G F N 2 - x T B                 |
           -------------------------------------------------

        Reference                      10.1021/acs.jctc.8b01176
      * Hamiltonian:
        H0-scaling (s, p, d)           1.850000    2.230000    2.230000
        zeta-weighting                 0.500000
      * Dispersion:
        s8                             2.700000
        a1                             0.520000
        a2                             5.000000
        s9                             5.000000
      * Repulsion:
        kExp                           1.500000    1.000000
        rExp                           1.000000
      * Coulomb:
        alpha                          2.000000
        third order                    shell-resolved
        anisotropic                    true
        a3                             3.000000
        a5                             4.000000
        cn-shift                       1.200000
        cn-exp                         4.000000
        max-rad                        5.000000

      * Solvation model:               ALPB
        Solvent                        water
        Parameter file                 internal GFN2-xTB/ALPB
        Dielectric constant                8.0200E+01
        Reference state                gsolv [1 M gas/solution]
        Free energy shift                  1.0808E-03 Eh       6.7819E-01 kcal/mol
        Temperature                        2.9815E+02 K
        Density                            1.0000E+00 kg/L
        Solvent mass                       1.8000E+01 g/mol
        Interaction kernel             P16
        Born radius scaling (c1)           1.4744E+00
        Born radii integrator          GBOBC
        Born offset                        0.0000E+00 a0       0.0000E+00 AA
        H-bond correction              true
        Ion screening                  false
        Surface tension                    1.0000E-05 Eh       1.5569E+01 dyn/cm
        Grid points                               230 per atom

          ...................................................
          :                      SETUP                      :
          :.................................................:
          :  # basis functions                 390          :
          :  # atomic orbitals                 390          :
          :  # shells                          232          :
          :  # electrons                       434          :
          :  max. iterations                   250          :
          :  Hamiltonian                  GFN2-xTB          :
          :  restarted?                      false          :
          :  GBSA solvation                   true          :
          :  PC potential                    false          :
          :  electronic temp.          300.0000000     K    :
          :  accuracy                    1.0000000          :
          :  -> integral cutoff          0.2500000E+02      :
          :  -> integral neglect         0.1000000E-07      :
          :  -> SCF convergence          0.1000000E-05 Eh   :
          :  -> wf. convergence          0.1000000E-03 e    :
          :  Broyden damping             0.4000000          :
          :  net charge                          0          :
          :  unpaired electrons                  0          :
          ...................................................

 iter      E             dE          RMSdq      gap      omega  full diag
   1   -251.7241218 -0.251724E+03  0.440E+00    2.59       0.0  T
   2   -251.9887574 -0.264636E+00  0.240E+00    1.77       1.0  T
   3   -251.9819321  0.682527E-02  0.942E-01    1.64       1.0  T
   4   -252.0103456 -0.284135E-01  0.286E-01    1.37       1.0  T
   5   -252.0145243 -0.417864E-02  0.112E-01    1.38       1.0  T
   6   -252.0148844 -0.360096E-03  0.605E-02    1.41       1.0  T
   7   -252.0150167 -0.132333E-03  0.287E-02    1.42       1.0  T
   8   -252.0150559 -0.391515E-04  0.137E-02    1.42       1.0  T
   9   -252.0150645 -0.863646E-05  0.535E-03    1.42       1.5  T
  10   -252.0150654 -0.857391E-06  0.326E-03    1.42       2.5  T
  11   -252.0150658 -0.453516E-06  0.173E-03    1.42       4.7  T
  12   -252.0150659 -0.120646E-06  0.737E-04    1.42      11.0  T
  13   -252.0150660 -0.277099E-07  0.325E-04    1.42      24.9  T

   *** convergence criteria satisfied after 13 iterations ***

         #    Occupation            Energy/Eh            Energy/eV
      -------------------------------------------------------------
         1        2.0000           -0.7867698             -21.4091
       ...           ...                  ...                  ...
       211        2.0000           -0.4068669             -11.0714
       212        2.0000           -0.4036540             -10.9840
       213        2.0000           -0.3938367             -10.7168
       214        2.0000           -0.3920347             -10.6678
       215        2.0000           -0.3825304             -10.4092
       216        2.0000           -0.3795596             -10.3283
       217        2.0000           -0.3652066              -9.9378 (HOMO)
       218                         -0.3131224              -8.5205 (LUMO)
       219                         -0.2916073              -7.9350
       220                         -0.2358187              -6.4170
       221                         -0.2347947              -6.3891
       222                         -0.2325150              -6.3271
       ...                                ...                  ...
       390                          0.6944658              18.8974
      -------------------------------------------------------------
                  HL-Gap            0.0520841 Eh            1.4173 eV
             Fermi-level           -0.3391645 Eh           -9.2291 eV

 SCC (total)                   0 d,  0 h,  0 min,  0.295 sec
 SCC setup                      ...        0 min,  0.004 sec (  1.275%)
 Dispersion                     ...        0 min,  0.005 sec (  1.597%)
 classical contributions        ...        0 min,  0.000 sec (  0.064%)
 integral evaluation            ...        0 min,  0.012 sec (  4.238%)
 iterations                     ...        0 min,  0.229 sec ( 77.645%)
 molecular gradient             ...        0 min,  0.044 sec ( 14.835%)
 printout                       ...        0 min,  0.001 sec (  0.332%)

         :::::::::::::::::::::::::::::::::::::::::::::::::::::
         ::                     SUMMARY                     ::
         :::::::::::::::::::::::::::::::::::::::::::::::::::::
         :: total energy            -249.272346404474 Eh    ::
         :: total w/o Gsasa/hb      -249.256830168901 Eh    ::
         :: gradient norm              0.138575373043 Eh/a0 ::
         :: HOMO-LUMO gap              1.417281372492 eV    ::
         ::.................................................::
         :: SCC energy              -251.997761376684 Eh    ::
         :: -> isotropic ES            0.548677900849 Eh    ::
         :: -> anisotropic ES         -0.021498775962 Eh    ::
         :: -> anisotropic XC          0.028517916487 Eh    ::
         :: -> dispersion             -0.213297837154 Eh    ::
         :: -> Gsolv                  -0.062159054219 Eh    ::
         ::    -> Gelec               -0.046642818646 Eh    ::
         ::    -> Gsasa                0.007812767470 Eh    ::
         ::    -> Ghb                 -0.024409762741 Eh    ::
         ::    -> Gshift               0.001080759698 Eh    ::
         :: repulsion energy           2.725414972209 Eh    ::
         :: add. restraining           0.000000000000 Eh    ::
         :: total charge               0.000000000000 e     ::
         :::::::::::::::::::::::::::::::::::::::::::::::::::::

           -------------------------------------------------
          |                Property Printout                |
           -------------------------------------------------

    * Orbital Energies and Occupations

         #    Occupation            Energy/Eh            Energy/eV
      -------------------------------------------------------------
         1        2.0000           -0.7867698             -21.4091
       ...           ...                  ...                  ...
       205        2.0000           -0.4164164             -11.3313
       206        2.0000           -0.4148427             -11.2884
       207        2.0000           -0.4140744             -11.2675
       208        2.0000           -0.4117082             -11.2032
       209        2.0000           -0.4090212             -11.1300
       210        2.0000           -0.4075856             -11.0910
       211        2.0000           -0.4068669             -11.0714
       212        2.0000           -0.4036540             -10.9840
       213        2.0000           -0.3938367             -10.7168
       214        2.0000           -0.3920347             -10.6678
       215        2.0000           -0.3825304             -10.4092
       216        2.0000           -0.3795596             -10.3283
       217        2.0000           -0.3652066              -9.9378 (HOMO)
       218                         -0.3131224              -8.5205 (LUMO)
       219                         -0.2916073              -7.9350
       220                         -0.2358187              -6.4170
       221                         -0.2347947              -6.3891
       222                         -0.2325150              -6.3271
       223                         -0.2282666              -6.2115
       224                         -0.2270133              -6.1773
       225                         -0.2240930              -6.0979
       226                         -0.2236467              -6.0857
       227                         -0.1910329              -5.1983
       228                         -0.1592014              -4.3321
       ...                                ...                  ...
       390                          0.6944658              18.8974
      -------------------------------------------------------------
                  HL-Gap            0.0520841 Eh            1.4173 eV
             Fermi-level           -0.3391645 Eh           -9.2291 eV

     #   Z          covCN         q      C6AA      α(0)
     1   6 C        2.840     0.138    24.991     8.193
     2   6 C        2.968    -0.055    29.360     8.888
     3   6 C        2.964     0.005    27.916     8.666
     4   6 C        2.931    -0.070    29.734     8.943
     5   6 C        2.836     0.144    24.859     8.171
     6   6 C        2.921    -0.099    30.489     9.055
     7   6 C        3.731     0.100    19.020     6.225
     8   6 C        3.717     0.096    19.103     6.244
     9   6 C        3.749     0.103    18.938     6.207
    10   6 C        3.745     0.100    19.005     6.219
    11   6 C        3.735     0.096    19.075     6.233
    12   8 O        1.694    -0.351    19.901     6.023
    13   6 C        3.682     0.079    19.469     6.319
    14   8 O        1.650    -0.505    22.999     6.474
    15   8 O        1.651    -0.495    22.796     6.445
    16   8 O        1.697    -0.338    19.671     5.988
    17   8 O        1.701    -0.311    19.193     5.915
    18   6 C        3.675     0.072    19.589     6.342
    19   8 O        1.654    -0.489    22.657     6.426
    20   6 C        3.632     0.237    17.268     5.982
    21   8 O        1.696    -0.356    20.001     6.038
    22   6 C        3.738     0.096    19.067     6.231
    23   6 C        3.724     0.093    19.143     6.248
    24   6 C        3.721     0.093    19.152     6.250
    25   6 C        3.733     0.086    19.232     6.259
    26   8 O        1.651    -0.472    22.303     6.375
    27   8 O        1.697    -0.339    19.687     5.991
    28   8 O        1.653    -0.441    21.655     6.282
    29   6 C        3.716     0.066    19.590     6.323
    30   8 O        1.703    -0.253    18.196     5.759
    31   6 C        2.736     0.352    21.026     7.508
    32   8 O        0.857    -0.470    23.128     6.448
    33   6 C        2.722     0.352    21.027     7.507
    34   6 C        2.898    -0.107    30.704     9.085
    35   8 O        0.858    -0.505    23.885     6.553
    36   6 C        2.902     0.012    27.758     8.639
    37   6 C        2.898    -0.046    29.149     8.852
    38   6 C        2.896     0.001    28.004     8.676
    39   6 C        3.804    -0.083    22.081     6.690
    40   6 C        3.726     0.115    18.793     6.190
    41   6 C        2.895    -0.063    29.567     8.915
    42   8 O        1.651    -0.502    22.934     6.465
    43   6 C        2.897    -0.043    29.067     8.840
    44   6 C        2.899    -0.048    29.189     8.858
    45   6 C        2.894    -0.052    29.279     8.872
    46   6 C        3.805    -0.059    21.629     6.621
    47   6 C        3.801    -0.056    21.574     6.613
    48   6 C        3.801    -0.058    21.624     6.621
    49   6 C        3.799    -0.056    21.581     6.614
    50   6 C        3.751    -0.104    22.556     6.773
    51   8 O        1.655    -0.447    21.785     6.301
    52   8 O        1.657    -0.454    21.919     6.320
    53   6 C        3.631     0.227    17.413     6.008
    54   6 C        3.722     0.097    19.077     6.238
    55   6 C        3.721     0.093    19.146     6.249
    56   6 C        3.719     0.082    19.328     6.280
    57   6 C        3.742     0.091    19.148     6.243
    58   8 O        1.695    -0.355    19.983     6.035
    59   6 C        3.674     0.068    19.669     6.355
    60   8 O        1.651    -0.467    22.206     6.361
    61   8 O        1.652    -0.477    22.398     6.389
    62   8 O        1.652    -0.495    22.776     6.442
    63   8 O        1.654    -0.482    22.519     6.406
    64   6 C        2.972    -0.024    28.599     8.772
    65   6 C        2.928    -0.030    28.740     8.792
    66   6 C        2.925    -0.034    28.844     8.807
    67   6 C        2.977     0.028    27.365     8.581
    68   6 C        2.925    -0.032    28.787     8.799
    69   6 C        2.925    -0.024    28.596     8.770
    70   6 C        2.976    -0.002    28.078     8.692
    71   6 C        2.923    -0.036    28.898     8.816
    72   6 C        2.919    -0.067    29.667     8.932
    73   6 C        2.861     0.138    24.981     8.192
    74   6 C        2.920    -0.054    29.338     8.882
    75   6 C        2.923    -0.034    28.836     8.806
    76   8 O        1.701    -0.318    19.304     5.932
    77   6 C        3.695     0.080    19.413     6.303
    78   6 C        3.798    -0.063    21.720     6.636
    79   6 C        3.751    -0.117    22.808     6.811
    80   1 H        0.926     0.070     2.087     2.259
    81   1 H        0.926     0.071     2.077     2.254
    82   1 H        0.924     0.055     2.254     2.348
    83   1 H        0.924     0.043     2.406     2.426
    84   1 H        0.924     0.061     2.187     2.313
    85   1 H        0.923     0.067     2.118     2.276
    86   1 H        0.923     0.051     2.312     2.378
    87   1 H        0.924     0.050     2.322     2.383
    88   1 H        0.924     0.036     2.497     2.471
    89   1 H        0.802     0.336     0.623     1.240
    90   1 H        0.803     0.348     0.594     1.211
    91   1 H        0.924     0.048     2.348     2.396
    92   1 H        0.924     0.078     2.004     2.214
    93   1 H        0.804     0.359     0.568     1.184
    94   1 H        0.923     0.060     2.200     2.320
    95   1 H        0.923     0.052     2.295     2.369
    96   1 H        0.923     0.086     1.918     2.166
    97   1 H        0.923     0.045     2.378     2.412
    98   1 H        0.924     0.057     2.236     2.339
    99   1 H        0.802     0.345     0.601     1.218
   100   1 H        0.801     0.326     0.647     1.264
   101   1 H        0.924     0.096     1.819     2.109
   102   1 H        0.924     0.086     1.922     2.168
   103   1 H        0.926     0.112     1.676     2.025
   104   1 H        0.926     0.083     1.952     2.185
   105   1 H        0.926     0.073     2.054     2.241
   106   1 H        0.926     0.091     1.872     2.140
   107   1 H        0.924     0.099     1.796     2.096
   108   1 H        0.924     0.069     2.099     2.266
   109   1 H        0.922     0.043     2.410     2.428
   110   1 H        0.926     0.035     2.512     2.479
   111   1 H        0.803     0.327     0.644     1.261
   112   1 H        0.926     0.060     2.197     2.318
   113   1 H        0.926     0.028     2.619     2.531
   114   1 H        0.926     0.068     2.103     2.268
   115   1 H        0.924     0.038     2.473     2.459
   116   1 H        0.924     0.028     2.616     2.529
   117   1 H        0.924     0.035     2.519     2.482
   118   1 H        0.924     0.029     2.607     2.525
   119   1 H        0.924     0.036     2.498     2.471
   120   1 H        0.924     0.019     2.742     2.590
   121   1 H        0.924     0.033     2.546     2.495
   122   1 H        0.924     0.027     2.623     2.533
   123   1 H        0.924     0.034     2.532     2.488
   124   1 H        0.924     0.038     2.472     2.459
   125   1 H        0.924     0.027     2.630     2.536
   126   1 H        0.803     0.351     0.587     1.204
   127   1 H        0.804     0.379     0.525     1.139
   128   1 H        0.923     0.059     2.210     2.325
   129   1 H        0.924     0.016     2.795     2.614
   130   1 H        0.923     0.066     2.134     2.284
   131   1 H        0.923     0.072     2.068     2.249
   132   1 H        0.923     0.041     2.431     2.438
   133   1 H        0.924     0.074     2.039     2.233
   134   1 H        0.924     0.055     2.257     2.349
   135   1 H        0.802     0.329     0.641     1.258
   136   1 H        0.802     0.342     0.607     1.224
   137   1 H        0.802     0.337     0.619     1.236
   138   1 H        0.803     0.341     0.611     1.228
   139   1 H        0.926     0.084     1.939     2.178
   140   1 H        0.926     0.053     2.286     2.364
   141   1 H        0.926     0.050     2.322     2.383
   142   1 H        0.926     0.064     2.153     2.294
   143   1 H        0.926     0.052     2.293     2.368
   144   1 H        0.926     0.050     2.315     2.380
   145   1 H        0.926     0.054     2.266     2.354
   146   1 H        0.926     0.054     2.267     2.354
   147   1 H        0.924     0.037     2.495     2.470
   148   1 H        0.924     0.037     2.490     2.468
   149   1 H        0.924     0.049     2.331     2.388
   150   1 H        0.924     0.049     2.332     2.388
   151   1 H        0.924     0.045     2.387     2.416
   152   1 H        0.924     0.053     2.281     2.362
   153   1 H        0.924     0.045     2.385     2.415

 Mol. C6AA /au·bohr⁶  :     230669.207394
 Mol. C8AA /au·bohr⁸  :    5282704.476002
 Mol. α(0) /au        :        725.083309


Wiberg/Mayer (AO) data.
largest (>0.10) Wiberg bond orders for each atom

 ---------------------------------------------------------------------------
     #   Z sym  total        # sym  WBO       # sym  WBO       # sym  WBO
 ---------------------------------------------------------------------------
     1   6 C    3.944 --     6 C    1.389     2 C    1.340    51 O    1.063
     2   6 C    3.968 --     3 C    1.384     1 C    1.340     7 C    0.988
     3   6 C    3.987 --     4 C    1.430     2 C    1.384    13 C    1.002
     4   6 C    3.984 --     3 C    1.430     5 C    1.362    80 H    0.964
     5   6 C    3.943 --     6 C    1.379     4 C    1.362    52 O    1.075
     6   6 C    3.977 --     1 C    1.389     5 C    1.379    81 H    0.961
     7   6 C    3.936 --     2 C    0.988    82 H    0.954    12 O    0.952
                             8 C    0.950
     8   6 C    3.950 --    15 O    0.989     9 C    0.965    83 H    0.954
                             7 C    0.950
     9   6 C    3.928 --    10 C    0.970     8 C    0.965    84 H    0.950
                            17 O    0.934
    10   6 C    3.932 --     9 C    0.970    11 C    0.961    16 O    0.952
                            85 H    0.948
    11   6 C    3.945 --    18 C    0.981    12 O    0.970    10 C    0.961
                            86 H    0.956
    12   8 O    2.063 --    11 C    0.970     7 C    0.952
    13   6 C    3.957 --     3 C    1.002    14 O    0.990    88 H    0.963
                            87 H    0.952
    14   8 O    1.915 --    13 C    0.990    89 H    0.841
    15   8 O    1.937 --     8 C    0.989    90 H    0.820
    16   8 O    2.104 --    20 C    0.967    10 C    0.952
    17   8 O    2.263 --    33 C    1.058     9 C    0.934    35 O    0.131
    18   6 C    3.956 --    19 O    1.010    11 C    0.981    91 H    0.966
                            92 H    0.965
    19   8 O    1.924 --    18 C    1.010    93 H    0.855
    20   6 C    3.915 --    21 O    0.967    16 O    0.967    25 C    0.952
                            94 H    0.949
    21   8 O    2.066 --    20 C    0.967    22 C    0.942
    22   6 C    3.929 --    29 C    0.980    23 C    0.964    95 H    0.956
                            21 O    0.942
    23   6 C    3.961 --    28 O    1.006    22 C    0.964    24 C    0.962
                            96 H    0.953
    24   6 C    3.962 --    26 O    0.995    25 C    0.964    23 C    0.962
                            97 H    0.958
    25   6 C    3.937 --    24 C    0.964    27 O    0.956    20 C    0.952
                            98 H    0.941
    26   8 O    1.947 --    24 C    0.995    99 H    0.830
    27   8 O    2.092 --    53 C    0.988    25 C    0.956
    28   8 O    1.995 --    23 C    1.006   100 H    0.841
    29   6 C    3.925 --    22 C    0.980    30 O    0.961   101 H    0.959
                           102 H    0.957
    30   8 O    2.294 --    31 C    1.095    29 C    0.961    32 O    0.146
    31   6 C    3.897 --    32 O    1.669    30 O    1.095    64 C    1.033
    32   8 O    2.009 --    31 C    1.669    30 O    0.146
    33   6 C    3.886 --    35 O    1.565    34 C    1.118    17 O    1.058
    34   6 C    3.966 --    36 C    1.674    33 C    1.118   103 H    0.926
    35   8 O    1.976 --    33 C    1.565    17 O    0.131
    36   6 C    3.967 --    34 C    1.674    37 C    1.168   104 H    0.956
    37   6 C    3.984 --    38 C    1.748    36 C    1.168   105 H    0.958
    38   6 C    3.968 --    37 C    1.748    39 C    1.054   106 H    0.942
    39   6 C    3.985 --    38 C    1.054   108 H    0.961    40 C    0.960
                           107 H    0.926
    40   6 C    3.950 --    41 C    1.000    42 O    0.980   109 H    0.963
                            39 C    0.960
    41   6 C    3.980 --    43 C    1.839    40 C    1.000   110 H    0.966
                            45 C    0.129
    42   8 O    1.927 --    40 C    0.980   111 H    0.856
    43   6 C    3.989 --    41 C    1.839    44 C    1.122   112 H    0.951
    44   6 C    3.990 --    45 C    1.833    43 C    1.122   113 H    0.963
    45   6 C    3.976 --    44 C    1.833    46 C    1.027   114 H    0.948
                            41 C    0.129
    46   6 C    3.996 --    45 C    1.027    47 C    0.987   116 H    0.975
                           115 H    0.967
    47   6 C    3.990 --    48 C    1.008    46 C    0.987   117 H    0.977
                           118 H    0.976
    48   6 C    3.996 --    47 C    1.008    49 C    1.007   120 H    0.976
                           119 H    0.972
    49   6 C    3.997 --    50 C    1.021    48 C    1.007   121 H    0.977
                           122 H    0.977
    50   6 C    3.996 --    49 C    1.021   125 H    0.987   124 H    0.986
                           123 H    0.983
    51   8 O    2.065 --     1 C    1.063   126 H    0.824
    52   8 O    2.072 --     5 C    1.075   127 H    0.838
    53   6 C    3.918 --    27 O    0.988    58 O    0.952    54 C    0.949
                           128 H    0.946
    54   6 C    3.961 --    62 O    1.000    55 C    0.967    53 C    0.949
                           129 H    0.935
    55   6 C    3.959 --    61 O    1.006    54 C    0.967    56 C    0.962
                           130 H    0.960
    56   6 C    3.956 --    60 O    0.993    57 C    0.962    55 C    0.962
                           131 H    0.957
    57   6 C    3.931 --    59 C    0.983    56 C    0.962   132 H    0.956
                            58 O    0.939
    58   8 O    2.071 --    53 C    0.952    57 C    0.939
    59   6 C    3.960 --    63 O    1.014    57 C    0.983   133 H    0.966
                           134 H    0.962
    60   8 O    1.973 --    56 C    0.993   135 H    0.839
    61   8 O    1.948 --    55 C    1.006   136 H    0.843
    62   8 O    1.924 --    54 C    1.000   137 H    0.830
    63   8 O    1.925 --    59 C    1.014   138 H    0.834
    64   6 C    3.977 --    69 C    1.363    65 C    1.360    31 C    1.033
    65   6 C    3.983 --    66 C    1.474    64 C    1.360   139 H    0.951
    66   6 C    3.989 --    65 C    1.474    67 C    1.372   140 H    0.966
    67   6 C    3.984 --    66 C    1.372    68 C    1.369    70 C    1.054
    68   6 C    3.988 --    69 C    1.473    67 C    1.369   141 H    0.966
    69   6 C    3.986 --    68 C    1.473    64 C    1.363   142 H    0.958
    70   6 C    3.986 --    71 C    1.381    75 C    1.368    67 C    1.054
    71   6 C    3.987 --    72 C    1.463    70 C    1.381   143 H    0.965
                            74 C    0.102
    72   6 C    3.986 --    71 C    1.463    73 C    1.364   144 H    0.963
    73   6 C    3.921 --    72 C    1.364    74 C    1.354    76 O    1.045
    74   6 C    3.987 --    75 C    1.481    73 C    1.354   145 H    0.967
                            71 C    0.102
    75   6 C    3.986 --    74 C    1.481    70 C    1.368   146 H    0.960
    76   8 O    2.184 --    73 C    1.045    77 C    0.957
    77   6 C    3.938 --    78 C    1.003   147 H    0.968   148 H    0.968
                            76 O    0.957
    78   6 C    3.992 --    79 C    1.020    77 C    1.003   150 H    0.976
                           149 H    0.975
    79   6 C    3.993 --    78 C    1.020   153 H    0.986   151 H    0.986
                           152 H    0.985
    80   1 H    0.995 --     4 C    0.964
    81   1 H    0.994 --     6 C    0.961
    82   1 H    0.996 --     7 C    0.954
    83   1 H    0.998 --     8 C    0.954
    84   1 H    0.996 --     9 C    0.950
    85   1 H    0.995 --    10 C    0.948
    86   1 H    0.997 --    11 C    0.956
    87   1 H    0.997 --    13 C    0.952
    88   1 H    0.998 --    13 C    0.963
    89   1 H    0.887 --    14 O    0.841
    90   1 H    0.879 --    15 O    0.820
    91   1 H    0.998 --    18 C    0.966
    92   1 H    0.993 --    18 C    0.965
    93   1 H    0.871 --    19 O    0.855
    94   1 H    0.996 --    20 C    0.949
    95   1 H    0.997 --    22 C    0.956
    96   1 H    0.992 --    23 C    0.953
    97   1 H    0.998 --    24 C    0.958
    98   1 H    0.997 --    25 C    0.941
    99   1 H    0.881 --    26 O    0.830
   100   1 H    0.893 --    28 O    0.841
   101   1 H    0.990 --    29 C    0.959
   102   1 H    0.992 --    29 C    0.957
   103   1 H    0.987 --    34 C    0.926
   104   1 H    0.993 --    36 C    0.956
   105   1 H    0.994 --    37 C    0.958
   106   1 H    0.992 --    38 C    0.942
   107   1 H    0.985 --    39 C    0.926
   108   1 H    0.994 --    39 C    0.961
   109   1 H    0.996 --    40 C    0.963
   110   1 H    0.998 --    41 C    0.966
   111   1 H    0.893 --    42 O    0.856
   112   1 H    0.996 --    43 C    0.951
   113   1 H    0.999 --    44 C    0.963
   114   1 H    0.995 --    45 C    0.948
   115   1 H    0.998 --    46 C    0.967
   116   1 H    0.998 --    46 C    0.975
   117   1 H    0.999 --    47 C    0.977
   118   1 H    0.998 --    47 C    0.976
   119   1 H    0.999 --    48 C    0.972
   120   1 H    1.000 --    48 C    0.976
   121   1 H    0.999 --    49 C    0.977
   122   1 H    0.999 --    49 C    0.977
   123   1 H    0.999 --    50 C    0.983
   124   1 H    0.998 --    50 C    0.986
   125   1 H    0.999 --    50 C    0.987
   126   1 H    0.877 --    51 O    0.824
   127   1 H    0.856 --    52 O    0.838
   128   1 H    0.996 --    53 C    0.946
   129   1 H    1.000 --    54 C    0.935
   130   1 H    0.996 --    55 C    0.960
   131   1 H    0.994 --    56 C    0.957
   132   1 H    0.998 --    57 C    0.956
   133   1 H    0.994 --    59 C    0.966
   134   1 H    0.996 --    59 C    0.962
   135   1 H    0.892 --    60 O    0.839
   136   1 H    0.883 --    61 O    0.843
   137   1 H    0.886 --    62 O    0.830
   138   1 H    0.884 --    63 O    0.834
   139   1 H    0.992 --    65 C    0.951
   140   1 H    0.997 --    66 C    0.966
   141   1 H    0.997 --    68 C    0.966
   142   1 H    0.995 --    69 C    0.958
   143   1 H    0.997 --    71 C    0.965
   144   1 H    0.997 --    72 C    0.963
   145   1 H    0.996 --    74 C    0.967
   146   1 H    0.996 --    75 C    0.960
   147   1 H    0.998 --    77 C    0.968
   148   1 H    0.998 --    77 C    0.968
   149   1 H    0.998 --    78 C    0.975
   150   1 H    0.998 --    78 C    0.976
   151   1 H    0.998 --    79 C    0.986
   152   1 H    0.997 --    79 C    0.985
   153   1 H    0.998 --    79 C    0.986
 ---------------------------------------------------------------------------

Topologies differ in total number of bonds
Writing topology from bond orders to xtbtopo.mol

molecular dipole:
                 x           y           z       tot (Debye)
 q only:        0.902      -3.522       1.524
   full:        1.227      -3.011       1.430       9.028
molecular quadrupole (traceless):
                xx          xy          yy          xz          yz          zz
 q only:       13.622      25.248      -9.325     -22.318     -16.433      -4.297
  q+dip:        9.054      37.810     -12.375     -29.029     -13.855       3.321
   full:        9.331      41.190     -10.130     -27.550     -11.409       0.799


           -------------------------------------------------
          | TOTAL ENERGY             -249.272346404474 Eh   |
          | GRADIENT NORM               0.138575373043 Eh/α |
          | HOMO-LUMO GAP               1.417281372492 eV   |
           -------------------------------------------------

------------------------------------------------------------------------
 * finished run on 2026/06/19 at 18:52:53.213     
------------------------------------------------------------------------
 total:
 * wall-time:     0 d,  0 h,  0 min,  0.356 sec
 *  cpu-time:     0 d,  0 h,  0 min,  5.438 sec
 * ratio c/w:    15.284 speedup
 SCF:
 * wall-time:     0 d,  0 h,  0 min,  0.296 sec
 *  cpu-time:     0 d,  0 h,  0 min,  4.675 sec
 * ratio c/w:    15.818 speedup

normal termination of xtb
