      -----------------------------------------------------------      
     |                   =====================                   |     
     |                           x T B                           |     
     |                   =====================                   |     
     |                         S. Grimme                         |     
     |          Mulliken Center for Theoretical Chemistry        |     
     |                    University of Bonn                     |     
      -----------------------------------------------------------      

   * xtb version 6.7.1 (edcfbbe) compiled by 'albert@albert-system' on 2024-07-22

   xtb is free software: you can redistribute it and/or modify it under
   the terms of the GNU Lesser General Public License as published by
   the Free Software Foundation, either version 3 of the License, or
   (at your option) any later version.
   
   xtb is distributed in the hope that it will be useful,
   but WITHOUT ANY WARRANTY; without even the implied warranty of
   MERCHANTABILITY or FITNESS FOR A PARTICULAR PURPOSE.  See the
   GNU Lesser General Public License for more details.
   
   Cite this work as:
   * C. Bannwarth, E. Caldeweyher, S. Ehlert, A. Hansen, P. Pracht,
     J. Seibert, S. Spicher, S. Grimme, WIREs Comput. Mol. Sci., 2020, 11,
     e01493. DOI: 10.1002/wcms.1493
   
   for GFN2-xTB:
   * C. Bannwarth, S. Ehlert and S. Grimme., J. Chem. Theory Comput., 2019,
     15, 1652-1671. DOI: 10.1021/acs.jctc.8b01176
   for GFN1-xTB:
   * S. Grimme, C. Bannwarth, P. Shushkov, J. Chem. Theory Comput., 2017,
     13, 1989-2009. DOI: 10.1021/acs.jctc.7b00118
   for GFN0-xTB:
   * P. Pracht, E. Caldeweyher, S. Ehlert, S. Grimme, ChemRxiv, 2019, preprint.
     DOI: 10.26434/chemrxiv.8326202.v1
   for GFN-FF:
   * S. Spicher and S. Grimme, Angew. Chem. Int. Ed., 2020, 59, 15665-15673.
     DOI: 10.1002/anie.202004239
   
   for ALPB and GBSA implicit solvation:
   * S. Ehlert, M. Stahn, S. Spicher, S. Grimme, J. Chem. Theory Comput.,
     2021, 17, 4250-4261. DOI: 10.1021/acs.jctc.1c00471
   
   for ddCOSMO and CPCM-X implicit solvation:
   * M. Stahn, S. Ehlert, S. Grimme, J. Phys. Chem. A,
     2023, XX, XXXX-XXXX. DOI: 10.1021/acs.jpca.3c04382
   
   for DFT-D4:
   * E. Caldeweyher, C. Bannwarth and S. Grimme, J. Chem. Phys., 2017,
     147, 034112. DOI: 10.1063/1.4993215
   * E. Caldeweyher, S. Ehlert, A. Hansen, H. Neugebauer, S. Spicher,
     C. Bannwarth and S. Grimme, J. Chem. Phys., 2019, 150, 154122.
     DOI: 10.1063/1.5090222
   * E. Caldeweyher, J.-M. Mewes, S. Ehlert and S. Grimme, Phys. Chem. Chem. Phys.
     2020, 22, 8499-8512. DOI: 10.1039/D0CP00502A
   
   for sTDA-xTB:
   * S. Grimme and C. Bannwarth, J. Chem. Phys., 2016, 145, 054103.
     DOI: 10.1063/1.4959605
   
   in the mass-spec context:
   * V. Asgeirsson, C. Bauer and S. Grimme, Chem. Sci., 2017, 8, 4879.
     DOI: 10.1039/c7sc00601b
   * J. Koopman and S. Grimme, ACS Omega 2019, 4, 12, 15120-15133.
     DOI: 10.1021/acsomega.9b02011
   
   for metadynamics refer to:
   * S. Grimme, J. Chem. Theory Comput., 2019, 155, 2847-2862
     DOI: 10.1021/acs.jctc.9b00143
   
   for SPH calculations refer to:
   * S. Spicher and S. Grimme, J. Chem. Theory Comput., 2021, 17, 1701-1714
     DOI: 10.1021/acs.jctc.0c01306
   
   for ONIOM refer to:
   * C. Plett, A. Katbashev, S. Ehlert, S. Grimme, M. Bursch,
     Phys. Chem. Chem. Phys., 2023, 25, 17860-17868. DOI: 10.1039/D3CP02178E
   
   for DIPRO refer to:
   * J. Kohn, N. Gildemeister, S. Grimme, D. Fazzi, A. Hansen,
     J. Chem. Phys., 2023, just accepted.
   
   for PTB refer to:
   * S. Grimme, M. Mueller, A. Hansen, J. Chem. Phys., 2023, 158, 124111.
     DOI: 10.1063/5.0137838
   
   with help from (in alphabetical order)
   P. Atkinson, C. Bannwarth, F. Bohle, G. Brandenburg, E. Caldeweyher
   M. Checinski, S. Dohm, S. Ehlert, S. Ehrlich, I. Gerasimov, C. Hölzer
   A. Katbashev, J. Kohn, J. Koopman, C. Lavigne, S. Lehtola, F. März, M. Müller,
   F. Musil, H. Neugebauer, J. Pisarek, C. Plett, P. Pracht, F. Pultar,
   J. Seibert, P. Shushkov, S. Spicher, M. Stahn, M. Steiner, T. Strunk,
   J. Stückrath, T. Rose, and J. Unsleber
   
 * started run on 2026/06/19 at 18:52:50.655     
   ID    Z sym.   atoms
    1    6 C      1-11, 13, 18, 20, 22-25, 29, 31, 33, 34, 36-41, 43-50,
                  53-57, 59, 64-75, 77-79
    2    8 O      12, 14-17, 19, 21, 26-28, 30, 32, 35, 42, 51, 52, 58,
                  60-63, 76
    3    1 H      80-153

           -------------------------------------------------
          |                Calculation Setup                |
           -------------------------------------------------

          program call               : xtb PAPU-0085/conf02.xyz --gfn 2 --alpb water --chrg 0 --uhf 0 --namespace PAPU-0085/conf02_water
          hostname                   : cpu10
          calculation namespace      : PAPU-0085/conf02_water
          coordinate file            : PAPU-0085/conf02.xyz
          omp threads                :                    16


           -------------------------------------------------
          |                 G F N 2 - x T B                 |
           -------------------------------------------------

        Reference                      10.1021/acs.jctc.8b01176
      * Hamiltonian:
        H0-scaling (s, p, d)           1.850000    2.230000    2.230000
        zeta-weighting                 0.500000
      * Dispersion:
        s8                             2.700000
        a1                             0.520000
        a2                             5.000000
        s9                             5.000000
      * Repulsion:
        kExp                           1.500000    1.000000
        rExp                           1.000000
      * Coulomb:
        alpha                          2.000000
        third order                    shell-resolved
        anisotropic                    true
        a3                             3.000000
        a5                             4.000000
        cn-shift                       1.200000
        cn-exp                         4.000000
        max-rad                        5.000000

      * Solvation model:               ALPB
        Solvent                        water
        Parameter file                 internal GFN2-xTB/ALPB
        Dielectric constant                8.0200E+01
        Reference state                gsolv [1 M gas/solution]
        Free energy shift                  1.0808E-03 Eh       6.7819E-01 kcal/mol
        Temperature                        2.9815E+02 K
        Density                            1.0000E+00 kg/L
        Solvent mass                       1.8000E+01 g/mol
        Interaction kernel             P16
        Born radius scaling (c1)           1.4744E+00
        Born radii integrator          GBOBC
        Born offset                        0.0000E+00 a0       0.0000E+00 AA
        H-bond correction              true
        Ion screening                  false
        Surface tension                    1.0000E-05 Eh       1.5569E+01 dyn/cm
        Grid points                               230 per atom

          ...................................................
          :                      SETUP                      :
          :.................................................:
          :  # basis functions                 390          :
          :  # atomic orbitals                 390          :
          :  # shells                          232          :
          :  # electrons                       434          :
          :  max. iterations                   250          :
          :  Hamiltonian                  GFN2-xTB          :
          :  restarted?                      false          :
          :  GBSA solvation                   true          :
          :  PC potential                    false          :
          :  electronic temp.          300.0000000     K    :
          :  accuracy                    1.0000000          :
          :  -> integral cutoff          0.2500000E+02      :
          :  -> integral neglect         0.1000000E-07      :
          :  -> SCF convergence          0.1000000E-05 Eh   :
          :  -> wf. convergence          0.1000000E-03 e    :
          :  Broyden damping             0.4000000          :
          :  net charge                          0          :
          :  unpaired electrons                  0          :
          ...................................................

 iter      E             dE          RMSdq      gap      omega  full diag
   1   -251.7288258 -0.251729E+03  0.444E+00    2.58       0.0  T
   2   -251.9944266 -0.265601E+00  0.242E+00    1.73       1.0  T
   3   -251.9878222  0.660443E-02  0.937E-01    1.57       1.0  T
   4   -252.0154576 -0.276354E-01  0.286E-01    1.29       1.0  T
   5   -252.0197931 -0.433546E-02  0.110E-01    1.30       1.0  T
   6   -252.0201340 -0.340929E-03  0.564E-02    1.33       1.0  T
   7   -252.0202315 -0.975165E-04  0.260E-02    1.34       1.0  T
   8   -252.0202600 -0.284723E-04  0.133E-02    1.34       1.0  T
   9   -252.0202694 -0.942195E-05  0.503E-03    1.34       1.6  T
  10   -252.0202702 -0.770294E-06  0.297E-03    1.34       2.7  T
  11   -252.0202705 -0.328080E-06  0.161E-03    1.34       5.0  T
  12   -252.0202706 -0.108758E-06  0.696E-04    1.34      11.6  T
  13   -252.0202706 -0.252055E-07  0.308E-04    1.34      26.2  T

   *** convergence criteria satisfied after 13 iterations ***

         #    Occupation            Energy/Eh            Energy/eV
      -------------------------------------------------------------
         1        2.0000           -0.7875294             -21.4298
       ...           ...                  ...                  ...
       211        2.0000           -0.4056378             -11.0380
       212        2.0000           -0.4039767             -10.9928
       213        2.0000           -0.3969609             -10.8019
       214        2.0000           -0.3921030             -10.6697
       215        2.0000           -0.3856669             -10.4945
       216        2.0000           -0.3759499             -10.2301
       217        2.0000           -0.3629269              -9.8757 (HOMO)
       218                         -0.3136912              -8.5360 (LUMO)
       219                         -0.2851259              -7.7587
       220                         -0.2370705              -6.4510
       221                         -0.2334337              -6.3521
       222                         -0.2327918              -6.3346
       ...                                ...                  ...
       390                          0.6957308              18.9318
      -------------------------------------------------------------
                  HL-Gap            0.0492357 Eh            1.3398 eV
             Fermi-level           -0.3383091 Eh           -9.2059 eV

 SCC (total)                   0 d,  0 h,  0 min,  0.294 sec
 SCC setup                      ...        0 min,  0.004 sec (  1.300%)
 Dispersion                     ...        0 min,  0.005 sec (  1.569%)
 classical contributions        ...        0 min,  0.000 sec (  0.066%)
 integral evaluation            ...        0 min,  0.013 sec (  4.529%)
 iterations                     ...        0 min,  0.228 sec ( 77.399%)
 molecular gradient             ...        0 min,  0.044 sec ( 14.808%)
 printout                       ...        0 min,  0.001 sec (  0.314%)

         :::::::::::::::::::::::::::::::::::::::::::::::::::::
         ::                     SUMMARY                     ::
         :::::::::::::::::::::::::::::::::::::::::::::::::::::
         :: total energy            -249.277519234309 Eh    ::
         :: total w/o Gsasa/hb      -249.261363077683 Eh    ::
         :: gradient norm              0.136949518411 Eh/a0 ::
         :: HOMO-LUMO gap              1.339771793913 eV    ::
         ::.................................................::
         :: SCC energy              -252.002659526894 Eh    ::
         :: -> isotropic ES            0.549764899914 Eh    ::
         :: -> anisotropic ES         -0.018795632717 Eh    ::
         :: -> anisotropic XC          0.028099516347 Eh    ::
         :: -> dispersion             -0.218206199450 Eh    ::
         :: -> Gsolv                  -0.065934168354 Eh    ::
         ::    -> Gelec               -0.049778011728 Eh    ::
         ::    -> Gsasa                0.007428909273 Eh    ::
         ::    -> Ghb                 -0.024665825597 Eh    ::
         ::    -> Gshift               0.001080759698 Eh    ::
         :: repulsion energy           2.725140292585 Eh    ::
         :: add. restraining           0.000000000000 Eh    ::
         :: total charge              -0.000000000000 e     ::
         :::::::::::::::::::::::::::::::::::::::::::::::::::::

           -------------------------------------------------
          |                Property Printout                |
           -------------------------------------------------

    * Orbital Energies and Occupations

         #    Occupation            Energy/Eh            Energy/eV
      -------------------------------------------------------------
         1        2.0000           -0.7875294             -21.4298
       ...           ...                  ...                  ...
       205        2.0000           -0.4146043             -11.2820
       206        2.0000           -0.4136515             -11.2560
       207        2.0000           -0.4124858             -11.2243
       208        2.0000           -0.4107210             -11.1763
       209        2.0000           -0.4105676             -11.1721
       210        2.0000           -0.4065020             -11.0615
       211        2.0000           -0.4056378             -11.0380
       212        2.0000           -0.4039767             -10.9928
       213        2.0000           -0.3969609             -10.8019
       214        2.0000           -0.3921030             -10.6697
       215        2.0000           -0.3856669             -10.4945
       216        2.0000           -0.3759499             -10.2301
       217        2.0000           -0.3629269              -9.8757 (HOMO)
       218                         -0.3136912              -8.5360 (LUMO)
       219                         -0.2851259              -7.7587
       220                         -0.2370705              -6.4510
       221                         -0.2334337              -6.3521
       222                         -0.2327918              -6.3346
       223                         -0.2314384              -6.2978
       224                         -0.2273052              -6.1853
       225                         -0.2257466              -6.1429
       226                         -0.2213575              -6.0234
       227                         -0.1914230              -5.2089
       228                         -0.1601973              -4.3592
       ...                                ...                  ...
       390                          0.6957308              18.9318
      -------------------------------------------------------------
                  HL-Gap            0.0492357 Eh            1.3398 eV
             Fermi-level           -0.3383091 Eh           -9.2059 eV

     #   Z          covCN         q      C6AA      α(0)
     1   6 C        2.840     0.139    24.957     8.187
     2   6 C        2.964    -0.043    29.065     8.843
     3   6 C        2.964    -0.002    28.072     8.691
     4   6 C        2.932    -0.091    30.286     9.025
     5   6 C        2.836     0.143    24.889     8.176
     6   6 C        2.922    -0.080    29.998     8.982
     7   6 C        3.733     0.104    18.958     6.215
     8   6 C        3.718     0.095    19.129     6.248
     9   6 C        3.746     0.104    18.940     6.208
    10   6 C        3.743     0.096    19.066     6.229
    11   6 C        3.734     0.095    19.088     6.235
    12   8 O        1.696    -0.332    19.564     5.972
    13   6 C        3.683     0.075    19.523     6.327
    14   8 O        1.653    -0.502    22.932     6.464
    15   8 O        1.651    -0.489    22.654     6.425
    16   8 O        1.697    -0.341    19.731     5.997
    17   8 O        1.701    -0.309    19.159     5.910
    18   6 C        3.675     0.078    19.496     6.327
    19   8 O        1.652    -0.481    22.496     6.403
    20   6 C        3.629     0.236    17.288     5.988
    21   8 O        1.696    -0.356    19.992     6.037
    22   6 C        3.738     0.098    19.039     6.226
    23   6 C        3.724     0.094    19.128     6.245
    24   6 C        3.721     0.093    19.152     6.250
    25   6 C        3.732     0.086    19.241     6.261
    26   8 O        1.652    -0.471    22.284     6.372
    27   8 O        1.697    -0.340    19.711     5.994
    28   8 O        1.653    -0.440    21.633     6.279
    29   6 C        3.727     0.064    19.597     6.320
    30   8 O        1.703    -0.254    18.205     5.761
    31   6 C        2.747     0.351    21.033     7.510
    32   8 O        0.857    -0.468    23.089     6.442
    33   6 C        2.720     0.353    21.014     7.504
    34   6 C        2.898    -0.105    30.643     9.076
    35   8 O        0.858    -0.505    23.891     6.553
    36   6 C        2.902     0.012    27.749     8.637
    37   6 C        2.898    -0.045    29.124     8.848
    38   6 C        2.897    -0.002    28.079     8.688
    39   6 C        3.804    -0.082    22.054     6.686
    40   6 C        3.727     0.116    18.779     6.187
    41   6 C        2.895    -0.064    29.601     8.920
    42   8 O        1.651    -0.503    22.962     6.469
    43   6 C        2.897    -0.043    29.073     8.841
    44   6 C        2.899    -0.048    29.195     8.859
    45   6 C        2.894    -0.049    29.223     8.863
    46   6 C        3.805    -0.059    21.632     6.621
    47   6 C        3.800    -0.057    21.591     6.616
    48   6 C        3.800    -0.060    21.650     6.625
    49   6 C        3.799    -0.055    21.573     6.613
    50   6 C        3.750    -0.106    22.583     6.777
    51   8 O        1.655    -0.454    21.928     6.321
    52   8 O        1.656    -0.444    21.716     6.291
    53   6 C        3.631     0.227    17.407     6.007
    54   6 C        3.722     0.097    19.085     6.239
    55   6 C        3.721     0.093    19.149     6.250
    56   6 C        3.719     0.082    19.330     6.280
    57   6 C        3.743     0.091    19.150     6.243
    58   8 O        1.696    -0.356    19.994     6.037
    59   6 C        3.674     0.068    19.668     6.355
    60   8 O        1.651    -0.468    22.208     6.362
    61   8 O        1.652    -0.477    22.404     6.390
    62   8 O        1.652    -0.495    22.777     6.443
    63   8 O        1.654    -0.484    22.549     6.410
    64   6 C        2.975    -0.024    28.601     8.772
    65   6 C        2.925    -0.026    28.652     8.778
    66   6 C        2.926    -0.029    28.731     8.790
    67   6 C        2.977     0.023    27.492     8.601
    68   6 C        2.926    -0.036    28.896     8.816
    69   6 C        2.924    -0.022    28.559     8.764
    70   6 C        2.976    -0.004    28.122     8.699
    71   6 C        2.924    -0.039    28.970     8.827
    72   6 C        2.920    -0.053    29.323     8.880
    73   6 C        2.858     0.141    24.930     8.184
    74   6 C        2.919    -0.062    29.551     8.914
    75   6 C        2.923    -0.038    28.954     8.824
    76   8 O        1.701    -0.320    19.345     5.938
    77   6 C        3.692     0.074    19.519     6.322
    78   6 C        3.798    -0.066    21.767     6.643
    79   6 C        3.751    -0.115    22.772     6.805
    80   1 H        0.926     0.065     2.138     2.286
    81   1 H        0.926     0.068     2.106     2.269
    82   1 H        0.924     0.046     2.376     2.411
    83   1 H        0.924     0.048     2.340     2.392
    84   1 H        0.924     0.059     2.205     2.322
    85   1 H        0.923     0.070     2.085     2.258
    86   1 H        0.923     0.046     2.365     2.405
    87   1 H        0.924     0.053     2.277     2.360
    88   1 H        0.924     0.034     2.530     2.487
    89   1 H        0.804     0.359     0.568     1.184
    90   1 H        0.803     0.347     0.596     1.212
    91   1 H        0.924     0.036     2.500     2.473
    92   1 H        0.924     0.068     2.107     2.270
    93   1 H        0.801     0.352     0.584     1.200
    94   1 H        0.923     0.062     2.176     2.307
    95   1 H        0.923     0.050     2.326     2.385
    96   1 H        0.923     0.085     1.926     2.170
    97   1 H        0.923     0.045     2.378     2.412
    98   1 H        0.924     0.055     2.260     2.351
    99   1 H        0.802     0.345     0.599     1.216
   100   1 H        0.802     0.322     0.658     1.275
   101   1 H        0.924     0.097     1.814     2.106
   102   1 H        0.924     0.086     1.922     2.168
   103   1 H        0.926     0.109     1.702     2.040
   104   1 H        0.926     0.086     1.920     2.167
   105   1 H        0.926     0.073     2.052     2.240
   106   1 H        0.926     0.092     1.858     2.131
   107   1 H        0.924     0.095     1.832     2.117
   108   1 H        0.924     0.065     2.144     2.290
   109   1 H        0.922     0.044     2.401     2.423
   110   1 H        0.926     0.035     2.521     2.483
   111   1 H        0.803     0.328     0.643     1.260
   112   1 H        0.926     0.059     2.216     2.328
   113   1 H        0.926     0.027     2.624     2.533
   114   1 H        0.926     0.067     2.117     2.275
   115   1 H        0.924     0.041     2.442     2.444
   116   1 H        0.924     0.027     2.630     2.536
   117   1 H        0.924     0.034     2.529     2.487
   118   1 H        0.924     0.028     2.617     2.530
   119   1 H        0.924     0.034     2.535     2.490
   120   1 H        0.924     0.025     2.664     2.553
   121   1 H        0.924     0.031     2.577     2.510
   122   1 H        0.924     0.028     2.612     2.527
   123   1 H        0.924     0.032     2.553     2.499
   124   1 H        0.924     0.034     2.530     2.487
   125   1 H        0.924     0.036     2.500     2.473
   126   1 H        0.803     0.352     0.583     1.200
   127   1 H        0.804     0.377     0.529     1.143
   128   1 H        0.923     0.059     2.215     2.328
   129   1 H        0.924     0.017     2.776     2.606
   130   1 H        0.923     0.065     2.138     2.287
   131   1 H        0.923     0.072     2.064     2.247
   132   1 H        0.923     0.041     2.430     2.438
   133   1 H        0.924     0.074     2.041     2.234
   134   1 H        0.924     0.056     2.253     2.347
   135   1 H        0.802     0.330     0.639     1.255
   136   1 H        0.802     0.344     0.603     1.220
   137   1 H        0.802     0.338     0.617     1.234
   138   1 H        0.803     0.341     0.610     1.227
   139   1 H        0.926     0.069     2.096     2.264
   140   1 H        0.926     0.056     2.245     2.343
   141   1 H        0.926     0.058     2.223     2.332
   142   1 H        0.926     0.054     2.274     2.358
   143   1 H        0.926     0.060     2.202     2.321
   144   1 H        0.926     0.052     2.293     2.368
   145   1 H        0.926     0.054     2.268     2.355
   146   1 H        0.926     0.053     2.285     2.364
   147   1 H        0.924     0.053     2.278     2.361
   148   1 H        0.924     0.037     2.484     2.464
   149   1 H        0.924     0.055     2.262     2.352
   150   1 H        0.924     0.039     2.464     2.455
   151   1 H        0.924     0.042     2.418     2.432
   152   1 H        0.924     0.052     2.296     2.370
   153   1 H        0.924     0.039     2.461     2.453

 Mol. C6AA /au·bohr⁶  :     230741.627440
 Mol. C8AA /au·bohr⁸  :    5283664.160556
 Mol. α(0) /au        :        725.214916


Wiberg/Mayer (AO) data.
largest (>0.10) Wiberg bond orders for each atom

 ---------------------------------------------------------------------------
     #   Z sym  total        # sym  WBO       # sym  WBO       # sym  WBO
 ---------------------------------------------------------------------------
     1   6 C    3.945 --     6 C    1.395     2 C    1.337    51 O    1.066
     2   6 C    3.971 --     3 C    1.393     1 C    1.337     7 C    0.986
     3   6 C    3.987 --     4 C    1.424     2 C    1.393    13 C    0.997
     4   6 C    3.980 --     3 C    1.424     5 C    1.363    80 H    0.961
     5   6 C    3.946 --     6 C    1.380     4 C    1.363    52 O    1.075
     6   6 C    3.982 --     1 C    1.395     5 C    1.380    81 H    0.964
     7   6 C    3.939 --     2 C    0.986    12 O    0.957    82 H    0.953
                             8 C    0.950
     8   6 C    3.948 --    15 O    0.986     9 C    0.965     7 C    0.950
                            83 H    0.946
     9   6 C    3.927 --    10 C    0.969     8 C    0.965    84 H    0.952
                            17 O    0.931
    10   6 C    3.930 --     9 C    0.969    11 C    0.961    16 O    0.950
                            85 H    0.947
    11   6 C    3.948 --    18 C    0.975    12 O    0.974    10 C    0.961
                            86 H    0.957
    12   8 O    2.078 --    11 C    0.974     7 C    0.957
    13   6 C    3.953 --     3 C    0.997    14 O    0.984    88 H    0.963
                            87 H    0.959
    14   8 O    1.931 --    13 C    0.984    89 H    0.855
    15   8 O    1.960 --     8 C    0.986    90 H    0.820
    16   8 O    2.098 --    20 C    0.969    10 C    0.950
    17   8 O    2.267 --    33 C    1.060     9 C    0.931    35 O    0.131
    18   6 C    3.961 --    19 O    1.018    11 C    0.975    92 H    0.968
                            91 H    0.968
    19   8 O    1.929 --    18 C    1.018    93 H    0.840
    20   6 C    3.915 --    16 O    0.969    21 O    0.967    25 C    0.951
                            94 H    0.950
    21   8 O    2.067 --    20 C    0.967    22 C    0.942
    22   6 C    3.931 --    29 C    0.981    23 C    0.963    95 H    0.956
                            21 O    0.942
    23   6 C    3.961 --    28 O    1.007    24 C    0.964    22 C    0.963
                            96 H    0.953
    24   6 C    3.962 --    26 O    0.995    23 C    0.964    25 C    0.963
                            97 H    0.958
    25   6 C    3.937 --    24 C    0.963    27 O    0.955    20 C    0.951
                            98 H    0.940
    26   8 O    1.951 --    24 C    0.995    99 H    0.828
    27   8 O    2.091 --    53 C    0.988    25 C    0.955
    28   8 O    1.996 --    23 C    1.007   100 H    0.844
    29   6 C    3.926 --    22 C    0.981    30 O    0.963   101 H    0.960
                           102 H    0.955
    30   8 O    2.297 --    31 C    1.096    29 C    0.963    32 O    0.154
    31   6 C    3.899 --    32 O    1.694    30 O    1.096    64 C    1.020
    32   8 O    1.995 --    31 C    1.694    30 O    0.154
    33   6 C    3.888 --    35 O    1.560    34 C    1.121    17 O    1.060
    34   6 C    3.968 --    36 C    1.674    33 C    1.121   103 H    0.931
    35   8 O    1.976 --    33 C    1.560    17 O    0.131
    36   6 C    3.966 --    34 C    1.674    37 C    1.165   104 H    0.954
    37   6 C    3.984 --    38 C    1.754    36 C    1.165   105 H    0.957
    38   6 C    3.968 --    37 C    1.754    39 C    1.053   106 H    0.940
    39   6 C    3.984 --    38 C    1.053   108 H    0.965    40 C    0.956
                           107 H    0.930
    40   6 C    3.950 --    41 C    1.001    42 O    0.981   109 H    0.961
                            39 C    0.956
    41   6 C    3.982 --    43 C    1.837    40 C    1.001   110 H    0.966
                            45 C    0.130
    42   8 O    1.929 --    40 C    0.981   111 H    0.855
    43   6 C    3.989 --    41 C    1.837    44 C    1.123   112 H    0.951
    44   6 C    3.990 --    45 C    1.833    43 C    1.123   113 H    0.962
    45   6 C    3.979 --    44 C    1.833    46 C    1.027   114 H    0.948
                            41 C    0.130
    46   6 C    3.996 --    45 C    1.027    47 C    0.990   116 H    0.978
                           115 H    0.961
    47   6 C    3.991 --    48 C    1.008    46 C    0.990   118 H    0.977
                           117 H    0.976
    48   6 C    3.996 --    47 C    1.008    49 C    1.007   120 H    0.975
                           119 H    0.975
    49   6 C    3.997 --    50 C    1.021    48 C    1.007   121 H    0.977
                           122 H    0.977
    50   6 C    3.996 --    49 C    1.021   125 H    0.986   124 H    0.986
                           123 H    0.984
    51   8 O    2.054 --     1 C    1.066   126 H    0.816
    52   8 O    2.079 --     5 C    1.075   127 H    0.839
    53   6 C    3.918 --    27 O    0.988    58 O    0.951    54 C    0.949
                           128 H    0.946
    54   6 C    3.961 --    62 O    1.000    55 C    0.967    53 C    0.949
                           129 H    0.935
    55   6 C    3.959 --    61 O    1.006    54 C    0.967    56 C    0.962
                           130 H    0.960
    56   6 C    3.956 --    60 O    0.994    57 C    0.962    55 C    0.962
                           131 H    0.957
    57   6 C    3.931 --    59 C    0.982    56 C    0.962   132 H    0.956
                            58 O    0.939
    58   8 O    2.072 --    53 C    0.951    57 C    0.939
    59   6 C    3.960 --    63 O    1.014    57 C    0.982   133 H    0.966
                           134 H    0.962
    60   8 O    1.975 --    56 C    0.994   135 H    0.838
    61   8 O    1.947 --    55 C    1.006   136 H    0.843
    62   8 O    1.924 --    54 C    1.000   137 H    0.833
    63   8 O    1.925 --    59 C    1.014   138 H    0.833
    64   6 C    3.976 --    69 C    1.370    65 C    1.369    31 C    1.020
    65   6 C    3.986 --    66 C    1.462    64 C    1.369   139 H    0.957
    66   6 C    3.988 --    65 C    1.462    67 C    1.368   140 H    0.964
    67   6 C    3.984 --    68 C    1.371    66 C    1.368    70 C    1.058
    68   6 C    3.987 --    69 C    1.474    67 C    1.371   141 H    0.964
    69   6 C    3.987 --    68 C    1.474    64 C    1.370   142 H    0.965
    70   6 C    3.986 --    75 C    1.375    71 C    1.368    67 C    1.058
    71   6 C    3.985 --    72 C    1.477    70 C    1.368   143 H    0.957
    72   6 C    3.988 --    71 C    1.477    73 C    1.358   144 H    0.967
    73   6 C    3.923 --    74 C    1.362    72 C    1.358    76 O    1.041
    74   6 C    3.986 --    75 C    1.468    73 C    1.362   145 H    0.960
    75   6 C    3.987 --    74 C    1.468    70 C    1.375   146 H    0.966
    76   8 O    2.179 --    73 C    1.041    77 C    0.958
    77   6 C    3.935 --    78 C    0.999   147 H    0.969   148 H    0.964
                            76 O    0.958
    78   6 C    3.992 --    79 C    1.020    77 C    0.999   150 H    0.976
                           149 H    0.966
    79   6 C    3.994 --    78 C    1.020   153 H    0.987   151 H    0.987
                           152 H    0.985
    80   1 H    0.995 --     4 C    0.961
    81   1 H    0.995 --     6 C    0.964
    82   1 H    0.997 --     7 C    0.953
    83   1 H    0.997 --     8 C    0.946
    84   1 H    0.996 --     9 C    0.952
    85   1 H    0.995 --    10 C    0.947
    86   1 H    0.998 --    11 C    0.957
    87   1 H    0.997 --    13 C    0.959
    88   1 H    0.998 --    13 C    0.963
    89   1 H    0.871 --    14 O    0.855
    90   1 H    0.879 --    15 O    0.820
    91   1 H    0.999 --    18 C    0.968
    92   1 H    0.995 --    18 C    0.968
    93   1 H    0.876 --    19 O    0.840
    94   1 H    0.995 --    20 C    0.950
    95   1 H    0.997 --    22 C    0.956
    96   1 H    0.992 --    23 C    0.953
    97   1 H    0.998 --    24 C    0.958
    98   1 H    0.997 --    25 C    0.940
    99   1 H    0.880 --    26 O    0.828
   100   1 H    0.896 --    28 O    0.844
   101   1 H    0.990 --    29 C    0.960
   102   1 H    0.992 --    29 C    0.955
   103   1 H    0.988 --    34 C    0.931
   104   1 H    0.992 --    36 C    0.954
   105   1 H    0.994 --    37 C    0.957
   106   1 H    0.991 --    38 C    0.940
   107   1 H    0.986 --    39 C    0.930
   108   1 H    0.995 --    39 C    0.965
   109   1 H    0.996 --    40 C    0.961
   110   1 H    0.998 --    41 C    0.966
   111   1 H    0.892 --    42 O    0.855
   112   1 H    0.997 --    43 C    0.951
   113   1 H    0.999 --    44 C    0.962
   114   1 H    0.995 --    45 C    0.948
   115   1 H    0.998 --    46 C    0.961
   116   1 H    0.999 --    46 C    0.978
   117   1 H    0.999 --    47 C    0.976
   118   1 H    0.999 --    47 C    0.977
   119   1 H    0.999 --    48 C    0.975
   120   1 H    0.999 --    48 C    0.975
   121   1 H    0.999 --    49 C    0.977
   122   1 H    0.999 --    49 C    0.977
   123   1 H    0.999 --    50 C    0.984
   124   1 H    0.999 --    50 C    0.986
   125   1 H    0.998 --    50 C    0.986
   126   1 H    0.876 --    51 O    0.816
   127   1 H    0.857 --    52 O    0.839
   128   1 H    0.996 --    53 C    0.946
   129   1 H    1.000 --    54 C    0.935
   130   1 H    0.996 --    55 C    0.960
   131   1 H    0.994 --    56 C    0.957
   132   1 H    0.998 --    57 C    0.956
   133   1 H    0.994 --    59 C    0.966
   134   1 H    0.996 --    59 C    0.962
   135   1 H    0.891 --    60 O    0.838
   136   1 H    0.882 --    61 O    0.843
   137   1 H    0.885 --    62 O    0.833
   138   1 H    0.884 --    63 O    0.833
   139   1 H    0.995 --    65 C    0.957
   140   1 H    0.996 --    66 C    0.964
   141   1 H    0.996 --    68 C    0.964
   142   1 H    0.997 --    69 C    0.965
   143   1 H    0.996 --    71 C    0.957
   144   1 H    0.997 --    72 C    0.967
   145   1 H    0.996 --    74 C    0.960
   146   1 H    0.997 --    75 C    0.966
   147   1 H    0.997 --    77 C    0.969
   148   1 H    0.998 --    77 C    0.964
   149   1 H    0.997 --    78 C    0.966
   150   1 H    0.998 --    78 C    0.976
   151   1 H    0.998 --    79 C    0.987
   152   1 H    0.997 --    79 C    0.985
   153   1 H    0.998 --    79 C    0.987
 ---------------------------------------------------------------------------

Topologies differ in total number of bonds
Writing topology from bond orders to xtbtopo.mol

molecular dipole:
                 x           y           z       tot (Debye)
 q only:       -0.688      -2.723      -0.664
   full:       -0.596      -2.194      -0.995       6.308
molecular quadrupole (traceless):
                xx          xy          yy          xz          yz          zz
 q only:       61.428       9.515     -35.703      33.548      -6.423     -25.724
  q+dip:       58.427      27.081     -42.536      38.309      -3.739     -15.891
   full:       57.798      27.280     -37.781      38.040      -3.118     -20.017


           -------------------------------------------------
          | TOTAL ENERGY             -249.277519234309 Eh   |
          | GRADIENT NORM               0.136949518411 Eh/α |
          | HOMO-LUMO GAP               1.339771793913 eV   |
           -------------------------------------------------

------------------------------------------------------------------------
 * finished run on 2026/06/19 at 18:52:51.004     
------------------------------------------------------------------------
 total:
 * wall-time:     0 d,  0 h,  0 min,  0.349 sec
 *  cpu-time:     0 d,  0 h,  0 min,  5.288 sec
 * ratio c/w:    15.170 speedup
 SCF:
 * wall-time:     0 d,  0 h,  0 min,  0.295 sec
 *  cpu-time:     0 d,  0 h,  0 min,  4.641 sec
 * ratio c/w:    15.722 speedup

normal termination of xtb
