      -----------------------------------------------------------      
     |                   =====================                   |     
     |                           x T B                           |     
     |                   =====================                   |     
     |                         S. Grimme                         |     
     |          Mulliken Center for Theoretical Chemistry        |     
     |                    University of Bonn                     |     
      -----------------------------------------------------------      

   * xtb version 6.7.1 (edcfbbe) compiled by 'albert@albert-system' on 2024-07-22

   xtb is free software: you can redistribute it and/or modify it under
   the terms of the GNU Lesser General Public License as published by
   the Free Software Foundation, either version 3 of the License, or
   (at your option) any later version.
   
   xtb is distributed in the hope that it will be useful,
   but WITHOUT ANY WARRANTY; without even the implied warranty of
   MERCHANTABILITY or FITNESS FOR A PARTICULAR PURPOSE.  See the
   GNU Lesser General Public License for more details.
   
   Cite this work as:
   * C. Bannwarth, E. Caldeweyher, S. Ehlert, A. Hansen, P. Pracht,
     J. Seibert, S. Spicher, S. Grimme, WIREs Comput. Mol. Sci., 2020, 11,
     e01493. DOI: 10.1002/wcms.1493
   
   for GFN2-xTB:
   * C. Bannwarth, S. Ehlert and S. Grimme., J. Chem. Theory Comput., 2019,
     15, 1652-1671. DOI: 10.1021/acs.jctc.8b01176
   for GFN1-xTB:
   * S. Grimme, C. Bannwarth, P. Shushkov, J. Chem. Theory Comput., 2017,
     13, 1989-2009. DOI: 10.1021/acs.jctc.7b00118
   for GFN0-xTB:
   * P. Pracht, E. Caldeweyher, S. Ehlert, S. Grimme, ChemRxiv, 2019, preprint.
     DOI: 10.26434/chemrxiv.8326202.v1
   for GFN-FF:
   * S. Spicher and S. Grimme, Angew. Chem. Int. Ed., 2020, 59, 15665-15673.
     DOI: 10.1002/anie.202004239
   
   for ALPB and GBSA implicit solvation:
   * S. Ehlert, M. Stahn, S. Spicher, S. Grimme, J. Chem. Theory Comput.,
     2021, 17, 4250-4261. DOI: 10.1021/acs.jctc.1c00471
   
   for ddCOSMO and CPCM-X implicit solvation:
   * M. Stahn, S. Ehlert, S. Grimme, J. Phys. Chem. A,
     2023, XX, XXXX-XXXX. DOI: 10.1021/acs.jpca.3c04382
   
   for DFT-D4:
   * E. Caldeweyher, C. Bannwarth and S. Grimme, J. Chem. Phys., 2017,
     147, 034112. DOI: 10.1063/1.4993215
   * E. Caldeweyher, S. Ehlert, A. Hansen, H. Neugebauer, S. Spicher,
     C. Bannwarth and S. Grimme, J. Chem. Phys., 2019, 150, 154122.
     DOI: 10.1063/1.5090222
   * E. Caldeweyher, J.-M. Mewes, S. Ehlert and S. Grimme, Phys. Chem. Chem. Phys.
     2020, 22, 8499-8512. DOI: 10.1039/D0CP00502A
   
   for sTDA-xTB:
   * S. Grimme and C. Bannwarth, J. Chem. Phys., 2016, 145, 054103.
     DOI: 10.1063/1.4959605
   
   in the mass-spec context:
   * V. Asgeirsson, C. Bauer and S. Grimme, Chem. Sci., 2017, 8, 4879.
     DOI: 10.1039/c7sc00601b
   * J. Koopman and S. Grimme, ACS Omega 2019, 4, 12, 15120-15133.
     DOI: 10.1021/acsomega.9b02011
   
   for metadynamics refer to:
   * S. Grimme, J. Chem. Theory Comput., 2019, 155, 2847-2862
     DOI: 10.1021/acs.jctc.9b00143
   
   for SPH calculations refer to:
   * S. Spicher and S. Grimme, J. Chem. Theory Comput., 2021, 17, 1701-1714
     DOI: 10.1021/acs.jctc.0c01306
   
   for ONIOM refer to:
   * C. Plett, A. Katbashev, S. Ehlert, S. Grimme, M. Bursch,
     Phys. Chem. Chem. Phys., 2023, 25, 17860-17868. DOI: 10.1039/D3CP02178E
   
   for DIPRO refer to:
   * J. Kohn, N. Gildemeister, S. Grimme, D. Fazzi, A. Hansen,
     J. Chem. Phys., 2023, just accepted.
   
   for PTB refer to:
   * S. Grimme, M. Mueller, A. Hansen, J. Chem. Phys., 2023, 158, 124111.
     DOI: 10.1063/5.0137838
   
   with help from (in alphabetical order)
   P. Atkinson, C. Bannwarth, F. Bohle, G. Brandenburg, E. Caldeweyher
   M. Checinski, S. Dohm, S. Ehlert, S. Ehrlich, I. Gerasimov, C. Hölzer
   A. Katbashev, J. Kohn, J. Koopman, C. Lavigne, S. Lehtola, F. März, M. Müller,
   F. Musil, H. Neugebauer, J. Pisarek, C. Plett, P. Pracht, F. Pultar,
   J. Seibert, P. Shushkov, S. Spicher, M. Stahn, M. Steiner, T. Strunk,
   J. Stückrath, T. Rose, and J. Unsleber
   
 * started run on 2026/06/19 at 18:52:51.390     
   ID    Z sym.   atoms
    1    6 C      1-11, 13, 18, 20, 22-25, 29, 31, 33, 34, 36-41, 43-50,
                  53-57, 59, 64-75, 77-79
    2    8 O      12, 14-17, 19, 21, 26-28, 30, 32, 35, 42, 51, 52, 58,
                  60-63, 76
    3    1 H      80-153

           -------------------------------------------------
          |                Calculation Setup                |
           -------------------------------------------------

          program call               : xtb PAPU-0085/conf03.xyz --gfn 2 --alpb water --chrg 0 --uhf 0 --namespace PAPU-0085/conf03_water
          hostname                   : cpu10
          calculation namespace      : PAPU-0085/conf03_water
          coordinate file            : PAPU-0085/conf03.xyz
          omp threads                :                    16


           -------------------------------------------------
          |                 G F N 2 - x T B                 |
           -------------------------------------------------

        Reference                      10.1021/acs.jctc.8b01176
      * Hamiltonian:
        H0-scaling (s, p, d)           1.850000    2.230000    2.230000
        zeta-weighting                 0.500000
      * Dispersion:
        s8                             2.700000
        a1                             0.520000
        a2                             5.000000
        s9                             5.000000
      * Repulsion:
        kExp                           1.500000    1.000000
        rExp                           1.000000
      * Coulomb:
        alpha                          2.000000
        third order                    shell-resolved
        anisotropic                    true
        a3                             3.000000
        a5                             4.000000
        cn-shift                       1.200000
        cn-exp                         4.000000
        max-rad                        5.000000

      * Solvation model:               ALPB
        Solvent                        water
        Parameter file                 internal GFN2-xTB/ALPB
        Dielectric constant                8.0200E+01
        Reference state                gsolv [1 M gas/solution]
        Free energy shift                  1.0808E-03 Eh       6.7819E-01 kcal/mol
        Temperature                        2.9815E+02 K
        Density                            1.0000E+00 kg/L
        Solvent mass                       1.8000E+01 g/mol
        Interaction kernel             P16
        Born radius scaling (c1)           1.4744E+00
        Born radii integrator          GBOBC
        Born offset                        0.0000E+00 a0       0.0000E+00 AA
        H-bond correction              true
        Ion screening                  false
        Surface tension                    1.0000E-05 Eh       1.5569E+01 dyn/cm
        Grid points                               230 per atom

          ...................................................
          :                      SETUP                      :
          :.................................................:
          :  # basis functions                 390          :
          :  # atomic orbitals                 390          :
          :  # shells                          232          :
          :  # electrons                       434          :
          :  max. iterations                   250          :
          :  Hamiltonian                  GFN2-xTB          :
          :  restarted?                      false          :
          :  GBSA solvation                   true          :
          :  PC potential                    false          :
          :  electronic temp.          300.0000000     K    :
          :  accuracy                    1.0000000          :
          :  -> integral cutoff          0.2500000E+02      :
          :  -> integral neglect         0.1000000E-07      :
          :  -> SCF convergence          0.1000000E-05 Eh   :
          :  -> wf. convergence          0.1000000E-03 e    :
          :  Broyden damping             0.4000000          :
          :  net charge                          0          :
          :  unpaired electrons                  0          :
          ...................................................

 iter      E             dE          RMSdq      gap      omega  full diag
   1   -251.7257359 -0.251726E+03  0.442E+00    2.60       0.0  T
   2   -251.9883412 -0.262605E+00  0.241E+00    1.75       1.0  T
   3   -251.9816643  0.667693E-02  0.941E-01    1.59       1.0  T
   4   -252.0095977 -0.279334E-01  0.284E-01    1.31       1.0  T
   5   -252.0137322 -0.413455E-02  0.109E-01    1.32       1.0  T
   6   -252.0140561 -0.323833E-03  0.566E-02    1.36       1.0  T
   7   -252.0141615 -0.105421E-03  0.266E-02    1.36       1.0  T
   8   -252.0141931 -0.316437E-04  0.135E-02    1.37       1.0  T
   9   -252.0142023 -0.916850E-05  0.508E-03    1.37       1.6  T
  10   -252.0142030 -0.749764E-06  0.307E-03    1.36       2.6  T
  11   -252.0142034 -0.373510E-06  0.163E-03    1.36       5.0  T
  12   -252.0142035 -0.109751E-06  0.695E-04    1.36      11.6  T
  13   -252.0142036 -0.235585E-07  0.300E-04    1.36      26.9  T

   *** convergence criteria satisfied after 13 iterations ***

         #    Occupation            Energy/Eh            Energy/eV
      -------------------------------------------------------------
         1        2.0000           -0.7874171             -21.4267
       ...           ...                  ...                  ...
       211        2.0000           -0.4059613             -11.0468
       212        2.0000           -0.4039803             -10.9929
       213        2.0000           -0.3922893             -10.6747
       214        2.0000           -0.3914434             -10.6517
       215        2.0000           -0.3832216             -10.4280
       216        2.0000           -0.3774005             -10.2696
       217        2.0000           -0.3638791              -9.9017 (HOMO)
       218                         -0.3137823              -8.5384 (LUMO)
       219                         -0.2897042              -7.8833
       220                         -0.2376369              -6.4664
       221                         -0.2350954              -6.3973
       222                         -0.2340178              -6.3679
       ...                                ...                  ...
       390                          0.6954935              18.9253
      -------------------------------------------------------------
                  HL-Gap            0.0500968 Eh            1.3632 eV
             Fermi-level           -0.3388307 Eh           -9.2201 eV

 SCC (total)                   0 d,  0 h,  0 min,  0.293 sec
 SCC setup                      ...        0 min,  0.004 sec (  1.322%)
 Dispersion                     ...        0 min,  0.005 sec (  1.577%)
 classical contributions        ...        0 min,  0.000 sec (  0.044%)
 integral evaluation            ...        0 min,  0.012 sec (  4.261%)
 iterations                     ...        0 min,  0.227 sec ( 77.583%)
 molecular gradient             ...        0 min,  0.044 sec ( 14.881%)
 printout                       ...        0 min,  0.001 sec (  0.318%)

         :::::::::::::::::::::::::::::::::::::::::::::::::::::
         ::                     SUMMARY                     ::
         :::::::::::::::::::::::::::::::::::::::::::::::::::::
         :: total energy            -249.271017175112 Eh    ::
         :: total w/o Gsasa/hb      -249.255540203744 Eh    ::
         :: gradient norm              0.138122464410 Eh/a0 ::
         :: HOMO-LUMO gap              1.363204174095 eV    ::
         ::.................................................::
         :: SCC energy              -251.995855719426 Eh    ::
         :: -> isotropic ES            0.545705151658 Eh    ::
         :: -> anisotropic ES         -0.018049283776 Eh    ::
         :: -> anisotropic XC          0.028319818828 Eh    ::
         :: -> dispersion             -0.215806916492 Eh    ::
         :: -> Gsolv                  -0.059989567322 Eh    ::
         ::    -> Gelec               -0.044512595954 Eh    ::
         ::    -> Gsasa                0.007810753457 Eh    ::
         ::    -> Ghb                 -0.024368484523 Eh    ::
         ::    -> Gshift               0.001080759698 Eh    ::
         :: repulsion energy           2.724838544315 Eh    ::
         :: add. restraining           0.000000000000 Eh    ::
         :: total charge              -0.000000000000 e     ::
         :::::::::::::::::::::::::::::::::::::::::::::::::::::

           -------------------------------------------------
          |                Property Printout                |
           -------------------------------------------------

    * Orbital Energies and Occupations

         #    Occupation            Energy/Eh            Energy/eV
      -------------------------------------------------------------
         1        2.0000           -0.7874171             -21.4267
       ...           ...                  ...                  ...
       205        2.0000           -0.4166670             -11.3381
       206        2.0000           -0.4147820             -11.2868
       207        2.0000           -0.4124587             -11.2236
       208        2.0000           -0.4104864             -11.1699
       209        2.0000           -0.4091218             -11.1328
       210        2.0000           -0.4077089             -11.0943
       211        2.0000           -0.4059613             -11.0468
       212        2.0000           -0.4039803             -10.9929
       213        2.0000           -0.3922893             -10.6747
       214        2.0000           -0.3914434             -10.6517
       215        2.0000           -0.3832216             -10.4280
       216        2.0000           -0.3774005             -10.2696
       217        2.0000           -0.3638791              -9.9017 (HOMO)
       218                         -0.3137823              -8.5384 (LUMO)
       219                         -0.2897042              -7.8833
       220                         -0.2376369              -6.4664
       221                         -0.2350954              -6.3973
       222                         -0.2340178              -6.3679
       223                         -0.2287511              -6.2246
       224                         -0.2262703              -6.1571
       225                         -0.2239383              -6.0937
       226                         -0.2233386              -6.0774
       227                         -0.1922764              -5.2321
       228                         -0.1602534              -4.3607
       ...                                ...                  ...
       390                          0.6954935              18.9253
      -------------------------------------------------------------
                  HL-Gap            0.0500968 Eh            1.3632 eV
             Fermi-level           -0.3388307 Eh           -9.2201 eV

     #   Z          covCN         q      C6AA      α(0)
     1   6 C        2.838     0.137    25.000     8.194
     2   6 C        2.971    -0.055    29.368     8.889
     3   6 C        2.965     0.005    27.898     8.664
     4   6 C        2.928    -0.084    30.100     8.997
     5   6 C        2.837     0.145    24.849     8.169
     6   6 C        2.921    -0.082    30.050     8.990
     7   6 C        3.733     0.100    19.020     6.225
     8   6 C        3.718     0.096    19.108     6.244
     9   6 C        3.748     0.103    18.951     6.209
    10   6 C        3.744     0.098    19.030     6.223
    11   6 C        3.736     0.096    19.078     6.233
    12   8 O        1.695    -0.351    19.910     6.024
    13   6 C        3.681     0.086    19.355     6.300
    14   8 O        1.650    -0.495    22.787     6.444
    15   8 O        1.651    -0.499    22.866     6.455
    16   8 O        1.697    -0.338    19.665     5.987
    17   8 O        1.701    -0.309    19.149     5.908
    18   6 C        3.675     0.073    19.580     6.340
    19   8 O        1.654    -0.490    22.670     6.427
    20   6 C        3.632     0.236    17.286     5.985
    21   8 O        1.696    -0.354    19.958     6.032
    22   6 C        3.739     0.097    19.060     6.229
    23   6 C        3.724     0.094    19.119     6.244
    24   6 C        3.721     0.093    19.154     6.251
    25   6 C        3.732     0.086    19.236     6.260
    26   8 O        1.651    -0.472    22.297     6.374
    27   8 O        1.697    -0.339    19.686     5.990
    28   8 O        1.653    -0.442    21.685     6.286
    29   6 C        3.715     0.065    19.617     6.328
    30   8 O        1.703    -0.253    18.185     5.757
    31   6 C        2.736     0.352    21.019     7.506
    32   8 O        0.857    -0.467    23.077     6.441
    33   6 C        2.721     0.352    21.028     7.507
    34   6 C        2.898    -0.106    30.679     9.082
    35   8 O        0.858    -0.505    23.892     6.554
    36   6 C        2.902     0.012    27.751     8.638
    37   6 C        2.898    -0.046    29.129     8.849
    38   6 C        2.896    -0.001    28.046     8.683
    39   6 C        3.804    -0.082    22.062     6.687
    40   6 C        3.727     0.116    18.777     6.187
    41   6 C        2.895    -0.064    29.587     8.918
    42   8 O        1.651    -0.503    22.957     6.468
    43   6 C        2.898    -0.043    29.062     8.839
    44   6 C        2.899    -0.048    29.192     8.859
    45   6 C        2.894    -0.050    29.238     8.866
    46   6 C        3.805    -0.058    21.612     6.618
    47   6 C        3.800    -0.056    21.582     6.614
    48   6 C        3.800    -0.060    21.651     6.625
    49   6 C        3.798    -0.054    21.553     6.610
    50   6 C        3.750    -0.107    22.602     6.780
    51   8 O        1.655    -0.444    21.725     6.292
    52   8 O        1.657    -0.450    21.838     6.308
    53   6 C        3.631     0.227    17.413     6.008
    54   6 C        3.722     0.097    19.077     6.238
    55   6 C        3.721     0.093    19.146     6.249
    56   6 C        3.719     0.082    19.327     6.280
    57   6 C        3.743     0.091    19.148     6.243
    58   8 O        1.695    -0.355    19.992     6.037
    59   6 C        3.674     0.068    19.669     6.355
    60   8 O        1.651    -0.468    22.214     6.362
    61   8 O        1.652    -0.477    22.397     6.389
    62   8 O        1.652    -0.495    22.778     6.443
    63   8 O        1.654    -0.483    22.537     6.409
    64   6 C        2.974    -0.023    28.583     8.770
    65   6 C        2.928    -0.028    28.702     8.786
    66   6 C        2.926    -0.030    28.761     8.795
    67   6 C        2.977     0.026    27.428     8.591
    68   6 C        2.926    -0.031    28.775     8.797
    69   6 C        2.923    -0.018    28.454     8.748
    70   6 C        2.976    -0.001    28.056     8.688
    71   6 C        2.923    -0.034    28.848     8.808
    72   6 C        2.920    -0.057    29.411     8.893
    73   6 C        2.860     0.141    24.924     8.183
    74   6 C        2.919    -0.057    29.425     8.895
    75   6 C        2.925    -0.035    28.868     8.811
    76   8 O        1.700    -0.322    19.383     5.944
    77   6 C        3.693     0.074    19.514     6.320
    78   6 C        3.798    -0.064    21.738     6.639
    79   6 C        3.751    -0.113    22.723     6.798
    80   1 H        0.926     0.070     2.082     2.256
    81   1 H        0.926     0.072     2.064     2.247
    82   1 H        0.924     0.054     2.271     2.357
    83   1 H        0.924     0.044     2.396     2.421
    84   1 H        0.924     0.062     2.179     2.309
    85   1 H        0.923     0.069     2.091     2.262
    86   1 H        0.923     0.051     2.314     2.379
    87   1 H        0.924     0.051     2.312     2.378
    88   1 H        0.924     0.018     2.761     2.599
    89   1 H        0.801     0.331     0.636     1.253
    90   1 H        0.803     0.349     0.591     1.208
    91   1 H        0.924     0.046     2.365     2.405
    92   1 H        0.924     0.077     2.011     2.218
    93   1 H        0.804     0.359     0.567     1.183
    94   1 H        0.923     0.062     2.178     2.308
    95   1 H        0.923     0.052     2.295     2.369
    96   1 H        0.923     0.085     1.929     2.172
    97   1 H        0.923     0.046     2.375     2.410
    98   1 H        0.924     0.057     2.239     2.340
    99   1 H        0.802     0.345     0.600     1.217
   100   1 H        0.801     0.325     0.652     1.269
   101   1 H        0.924     0.096     1.823     2.111
   102   1 H        0.924     0.086     1.915     2.164
   103   1 H        0.926     0.110     1.698     2.037
   104   1 H        0.926     0.085     1.927     2.171
   105   1 H        0.926     0.073     2.055     2.242
   106   1 H        0.926     0.091     1.870     2.139
   107   1 H        0.924     0.097     1.816     2.107
   108   1 H        0.924     0.065     2.145     2.290
   109   1 H        0.922     0.043     2.404     2.425
   110   1 H        0.926     0.035     2.517     2.481
   111   1 H        0.803     0.328     0.642     1.259
   112   1 H        0.926     0.058     2.221     2.330
   113   1 H        0.926     0.027     2.622     2.532
   114   1 H        0.926     0.067     2.117     2.275
   115   1 H        0.924     0.039     2.460     2.453
   116   1 H        0.924     0.023     2.689     2.565
   117   1 H        0.924     0.034     2.537     2.491
   118   1 H        0.924     0.031     2.572     2.508
   119   1 H        0.924     0.030     2.585     2.514
   120   1 H        0.924     0.026     2.639     2.540
   121   1 H        0.923     0.027     2.623     2.533
   122   1 H        0.924     0.032     2.558     2.501
   123   1 H        0.924     0.035     2.515     2.480
   124   1 H        0.924     0.036     2.508     2.476
   125   1 H        0.924     0.033     2.548     2.496
   126   1 H        0.802     0.350     0.589     1.206
   127   1 H        0.804     0.378     0.528     1.141
   128   1 H        0.923     0.059     2.208     2.324
   129   1 H        0.924     0.016     2.790     2.612
   130   1 H        0.923     0.066     2.132     2.284
   131   1 H        0.923     0.072     2.069     2.249
   132   1 H        0.923     0.042     2.429     2.437
   133   1 H        0.924     0.074     2.043     2.235
   134   1 H        0.924     0.055     2.254     2.348
   135   1 H        0.802     0.329     0.640     1.257
   136   1 H        0.802     0.343     0.606     1.223
   137   1 H        0.802     0.338     0.617     1.234
   138   1 H        0.803     0.341     0.611     1.228
   139   1 H        0.926     0.071     2.075     2.253
   140   1 H        0.926     0.049     2.338     2.391
   141   1 H        0.926     0.059     2.214     2.327
   142   1 H        0.926     0.064     2.151     2.294
   143   1 H        0.926     0.053     2.288     2.365
   144   1 H        0.926     0.056     2.245     2.343
   145   1 H        0.926     0.052     2.296     2.369
   146   1 H        0.926     0.047     2.356     2.400
   147   1 H        0.924     0.057     2.235     2.338
   148   1 H        0.924     0.037     2.492     2.469
   149   1 H        0.924     0.046     2.371     2.408
   150   1 H        0.924     0.042     2.417     2.431
   151   1 H        0.924     0.040     2.454     2.450
   152   1 H        0.924     0.050     2.326     2.385
   153   1 H        0.924     0.042     2.423     2.434

 Mol. C6AA /au·bohr⁶  :     230725.581654
 Mol. C8AA /au·bohr⁸  :    5282995.256161
 Mol. α(0) /au        :        725.177597


Wiberg/Mayer (AO) data.
largest (>0.10) Wiberg bond orders for each atom

 ---------------------------------------------------------------------------
     #   Z sym  total        # sym  WBO       # sym  WBO       # sym  WBO
 ---------------------------------------------------------------------------
     1   6 C    3.943 --     6 C    1.394     2 C    1.338    51 O    1.064
     2   6 C    3.969 --     3 C    1.386     1 C    1.338     7 C    0.988
     3   6 C    3.987 --     4 C    1.426     2 C    1.386    13 C    1.005
     4   6 C    3.982 --     3 C    1.426     5 C    1.362    80 H    0.961
     5   6 C    3.944 --     6 C    1.376     4 C    1.362    52 O    1.075
     6   6 C    3.980 --     1 C    1.394     5 C    1.376    81 H    0.962
     7   6 C    3.938 --     2 C    0.988    82 H    0.954    12 O    0.952
                             8 C    0.951
     8   6 C    3.950 --    15 O    0.989     9 C    0.964     7 C    0.951
                            83 H    0.949
     9   6 C    3.927 --    10 C    0.969     8 C    0.964    84 H    0.951
                            17 O    0.933
    10   6 C    3.932 --     9 C    0.969    11 C    0.961    16 O    0.952
                            85 H    0.947
    11   6 C    3.946 --    18 C    0.981    12 O    0.970    10 C    0.961
                            86 H    0.956
    12   8 O    2.056 --    11 C    0.970     7 C    0.952
    13   6 C    3.960 --     3 C    1.005    14 O    0.993    88 H    0.964
                            87 H    0.949
    14   8 O    1.916 --    13 C    0.993    89 H    0.847
    15   8 O    1.931 --     8 C    0.989    90 H    0.821
    16   8 O    2.104 --    20 C    0.968    10 C    0.952
    17   8 O    2.266 --    33 C    1.058     9 C    0.933    35 O    0.131
    18   6 C    3.956 --    19 O    1.010    11 C    0.981    91 H    0.966
                            92 H    0.965
    19   8 O    1.923 --    18 C    1.010    93 H    0.854
    20   6 C    3.915 --    16 O    0.968    21 O    0.967    25 C    0.951
                            94 H    0.949
    21   8 O    2.067 --    20 C    0.967    22 C    0.943
    22   6 C    3.931 --    29 C    0.982    23 C    0.963    95 H    0.955
                            21 O    0.943
    23   6 C    3.961 --    28 O    1.007    24 C    0.963    22 C    0.963
                            96 H    0.954
    24   6 C    3.961 --    26 O    0.995    25 C    0.964    23 C    0.963
                            97 H    0.958
    25   6 C    3.937 --    24 C    0.964    27 O    0.956    20 C    0.951
                            98 H    0.940
    26   8 O    1.949 --    24 C    0.995    99 H    0.829
    27   8 O    2.092 --    53 C    0.988    25 C    0.956
    28   8 O    1.993 --    23 C    1.007   100 H    0.838
    29   6 C    3.924 --    22 C    0.982    30 O    0.960   101 H    0.959
                           102 H    0.956
    30   8 O    2.301 --    31 C    1.103    29 C    0.960    32 O    0.150
    31   6 C    3.896 --    32 O    1.672    30 O    1.103    64 C    1.025
    32   8 O    2.009 --    31 C    1.672    30 O    0.150
    33   6 C    3.888 --    35 O    1.565    34 C    1.120    17 O    1.058
    34   6 C    3.968 --    36 C    1.673    33 C    1.120   103 H    0.930
    35   8 O    1.976 --    33 C    1.565    17 O    0.131
    36   6 C    3.965 --    34 C    1.673    37 C    1.166   104 H    0.954
    37   6 C    3.984 --    38 C    1.752    36 C    1.166   105 H    0.957
    38   6 C    3.968 --    37 C    1.752    39 C    1.053   106 H    0.941
    39   6 C    3.984 --    38 C    1.053   108 H    0.965    40 C    0.956
                           107 H    0.929
    40   6 C    3.950 --    41 C    1.001    42 O    0.981   109 H    0.962
                            39 C    0.956
    41   6 C    3.982 --    43 C    1.837    40 C    1.001   110 H    0.966
                            45 C    0.130
    42   8 O    1.929 --    40 C    0.981   111 H    0.855
    43   6 C    3.989 --    41 C    1.837    44 C    1.123   112 H    0.952
    44   6 C    3.990 --    45 C    1.832    43 C    1.123   113 H    0.963
    45   6 C    3.979 --    44 C    1.832    46 C    1.027   114 H    0.948
                            41 C    0.130
    46   6 C    3.996 --    45 C    1.027    47 C    0.989   116 H    0.978
                           115 H    0.963
    47   6 C    3.990 --    48 C    1.009    46 C    0.989   117 H    0.976
                           118 H    0.974
    48   6 C    3.996 --    47 C    1.009    49 C    1.007   119 H    0.974
                           120 H    0.972
    49   6 C    3.997 --    50 C    1.021    48 C    1.007   122 H    0.977
                           121 H    0.976
    50   6 C    3.996 --    49 C    1.021   125 H    0.987   123 H    0.987
                           124 H    0.985
    51   8 O    2.064 --     1 C    1.064   126 H    0.831
    52   8 O    2.073 --     5 C    1.075   127 H    0.839
    53   6 C    3.918 --    27 O    0.988    58 O    0.952    54 C    0.949
                           128 H    0.946
    54   6 C    3.961 --    62 O    1.001    55 C    0.967    53 C    0.949
                           129 H    0.935
    55   6 C    3.959 --    61 O    1.006    54 C    0.967    56 C    0.962
                           130 H    0.960
    56   6 C    3.956 --    60 O    0.993    57 C    0.962    55 C    0.962
                           131 H    0.957
    57   6 C    3.931 --    59 C    0.983    56 C    0.962   132 H    0.956
                            58 O    0.939
    58   8 O    2.071 --    53 C    0.952    57 C    0.939
    59   6 C    3.960 --    63 O    1.014    57 C    0.983   133 H    0.966
                           134 H    0.962
    60   8 O    1.973 --    56 C    0.993   135 H    0.839
    61   8 O    1.948 --    55 C    1.006   136 H    0.843
    62   8 O    1.924 --    54 C    1.001   137 H    0.830
    63   8 O    1.925 --    59 C    1.014   138 H    0.834
    64   6 C    3.975 --    69 C    1.365    65 C    1.363    31 C    1.025
    65   6 C    3.986 --    66 C    1.467    64 C    1.363   139 H    0.953
    66   6 C    3.989 --    65 C    1.467    67 C    1.368   140 H    0.964
    67   6 C    3.984 --    66 C    1.368    68 C    1.368    70 C    1.064
    68   6 C    3.987 --    69 C    1.475    67 C    1.368   141 H    0.964
    69   6 C    3.986 --    68 C    1.475    64 C    1.365   142 H    0.963
    70   6 C    3.986 --    75 C    1.372    71 C    1.369    67 C    1.064
    71   6 C    3.987 --    72 C    1.478    70 C    1.369   143 H    0.964
    72   6 C    3.986 --    71 C    1.478    73 C    1.359   144 H    0.967
    73   6 C    3.923 --    74 C    1.365    72 C    1.359    76 O    1.036
    74   6 C    3.988 --    75 C    1.470    73 C    1.365   145 H    0.960
    75   6 C    3.987 --    74 C    1.470    70 C    1.372   146 H    0.961
    76   8 O    2.168 --    73 C    1.036    77 C    0.957
    77   6 C    3.936 --    78 C    1.000   147 H    0.969   148 H    0.964
                            76 O    0.957
    78   6 C    3.993 --    79 C    1.020    77 C    1.000   150 H    0.976
                           149 H    0.969
    79   6 C    3.994 --    78 C    1.020   153 H    0.987   151 H    0.987
                           152 H    0.985
    80   1 H    0.995 --     4 C    0.961
    81   1 H    0.994 --     6 C    0.962
    82   1 H    0.996 --     7 C    0.954
    83   1 H    0.998 --     8 C    0.949
    84   1 H    0.996 --     9 C    0.951
    85   1 H    0.995 --    10 C    0.947
    86   1 H    0.997 --    11 C    0.956
    87   1 H    0.997 --    13 C    0.949
    88   1 H    0.999 --    13 C    0.964
    89   1 H    0.890 --    14 O    0.847
    90   1 H    0.878 --    15 O    0.821
    91   1 H    0.998 --    18 C    0.966
    92   1 H    0.994 --    18 C    0.965
    93   1 H    0.871 --    19 O    0.854
    94   1 H    0.995 --    20 C    0.949
    95   1 H    0.996 --    22 C    0.955
    96   1 H    0.992 --    23 C    0.954
    97   1 H    0.997 --    24 C    0.958
    98   1 H    0.997 --    25 C    0.940
    99   1 H    0.880 --    26 O    0.829
   100   1 H    0.894 --    28 O    0.838
   101   1 H    0.990 --    29 C    0.959
   102   1 H    0.992 --    29 C    0.956
   103   1 H    0.988 --    34 C    0.930
   104   1 H    0.992 --    36 C    0.954
   105   1 H    0.994 --    37 C    0.957
   106   1 H    0.992 --    38 C    0.941
   107   1 H    0.985 --    39 C    0.929
   108   1 H    0.995 --    39 C    0.965
   109   1 H    0.996 --    40 C    0.962
   110   1 H    0.998 --    41 C    0.966
   111   1 H    0.892 --    42 O    0.855
   112   1 H    0.997 --    43 C    0.952
   113   1 H    0.999 --    44 C    0.963
   114   1 H    0.995 --    45 C    0.948
   115   1 H    0.998 --    46 C    0.963
   116   1 H    0.999 --    46 C    0.978
   117   1 H    0.999 --    47 C    0.976
   118   1 H    0.999 --    47 C    0.974
   119   1 H    0.999 --    48 C    0.974
   120   1 H    0.999 --    48 C    0.972
   121   1 H    0.999 --    49 C    0.976
   122   1 H    0.999 --    49 C    0.977
   123   1 H    0.999 --    50 C    0.987
   124   1 H    0.999 --    50 C    0.985
   125   1 H    0.999 --    50 C    0.987
   126   1 H    0.877 --    51 O    0.831
   127   1 H    0.857 --    52 O    0.839
   128   1 H    0.996 --    53 C    0.946
   129   1 H    1.000 --    54 C    0.935
   130   1 H    0.995 --    55 C    0.960
   131   1 H    0.994 --    56 C    0.957
   132   1 H    0.998 --    57 C    0.956
   133   1 H    0.994 --    59 C    0.966
   134   1 H    0.996 --    59 C    0.962
   135   1 H    0.892 --    60 O    0.839
   136   1 H    0.883 --    61 O    0.843
   137   1 H    0.885 --    62 O    0.830
   138   1 H    0.884 --    63 O    0.834
   139   1 H    0.994 --    65 C    0.953
   140   1 H    0.997 --    66 C    0.964
   141   1 H    0.996 --    68 C    0.964
   142   1 H    0.995 --    69 C    0.963
   143   1 H    0.997 --    71 C    0.964
   144   1 H    0.996 --    72 C    0.967
   145   1 H    0.997 --    74 C    0.960
   146   1 H    0.998 --    75 C    0.961
   147   1 H    0.996 --    77 C    0.969
   148   1 H    0.998 --    77 C    0.964
   149   1 H    0.998 --    78 C    0.969
   150   1 H    0.998 --    78 C    0.976
   151   1 H    0.998 --    79 C    0.987
   152   1 H    0.997 --    79 C    0.985
   153   1 H    0.998 --    79 C    0.987
 ---------------------------------------------------------------------------

Topologies differ in total number of bonds
Writing topology from bond orders to xtbtopo.mol

molecular dipole:
                 x           y           z       tot (Debye)
 q only:        1.022      -1.821      -0.302
   full:        1.393      -1.145      -0.599       4.830
molecular quadrupole (traceless):
                xx          xy          yy          xz          yz          zz
 q only:       18.491       5.452     -18.230      14.149      -7.241      -0.261
  q+dip:       11.420      19.012     -23.565      15.566      -9.149      12.144
   full:       10.050      20.753     -18.956      15.597      -5.841       8.905


           -------------------------------------------------
          | TOTAL ENERGY             -249.271017175112 Eh   |
          | GRADIENT NORM               0.138122464410 Eh/α |
          | HOMO-LUMO GAP               1.363204174095 eV   |
           -------------------------------------------------

------------------------------------------------------------------------
 * finished run on 2026/06/19 at 18:52:51.746     
------------------------------------------------------------------------
 total:
 * wall-time:     0 d,  0 h,  0 min,  0.356 sec
 *  cpu-time:     0 d,  0 h,  0 min,  5.434 sec
 * ratio c/w:    15.274 speedup
 SCF:
 * wall-time:     0 d,  0 h,  0 min,  0.294 sec
 *  cpu-time:     0 d,  0 h,  0 min,  4.633 sec
 * ratio c/w:    15.758 speedup

normal termination of xtb
