      -----------------------------------------------------------      
     |                   =====================                   |     
     |                           x T B                           |     
     |                   =====================                   |     
     |                         S. Grimme                         |     
     |          Mulliken Center for Theoretical Chemistry        |     
     |                    University of Bonn                     |     
      -----------------------------------------------------------      

   * xtb version 6.7.1 (edcfbbe) compiled by 'albert@albert-system' on 2024-07-22

   xtb is free software: you can redistribute it and/or modify it under
   the terms of the GNU Lesser General Public License as published by
   the Free Software Foundation, either version 3 of the License, or
   (at your option) any later version.
   
   xtb is distributed in the hope that it will be useful,
   but WITHOUT ANY WARRANTY; without even the implied warranty of
   MERCHANTABILITY or FITNESS FOR A PARTICULAR PURPOSE.  See the
   GNU Lesser General Public License for more details.
   
   Cite this work as:
   * C. Bannwarth, E. Caldeweyher, S. Ehlert, A. Hansen, P. Pracht,
     J. Seibert, S. Spicher, S. Grimme, WIREs Comput. Mol. Sci., 2020, 11,
     e01493. DOI: 10.1002/wcms.1493
   
   for GFN2-xTB:
   * C. Bannwarth, S. Ehlert and S. Grimme., J. Chem. Theory Comput., 2019,
     15, 1652-1671. DOI: 10.1021/acs.jctc.8b01176
   for GFN1-xTB:
   * S. Grimme, C. Bannwarth, P. Shushkov, J. Chem. Theory Comput., 2017,
     13, 1989-2009. DOI: 10.1021/acs.jctc.7b00118
   for GFN0-xTB:
   * P. Pracht, E. Caldeweyher, S. Ehlert, S. Grimme, ChemRxiv, 2019, preprint.
     DOI: 10.26434/chemrxiv.8326202.v1
   for GFN-FF:
   * S. Spicher and S. Grimme, Angew. Chem. Int. Ed., 2020, 59, 15665-15673.
     DOI: 10.1002/anie.202004239
   
   for ALPB and GBSA implicit solvation:
   * S. Ehlert, M. Stahn, S. Spicher, S. Grimme, J. Chem. Theory Comput.,
     2021, 17, 4250-4261. DOI: 10.1021/acs.jctc.1c00471
   
   for ddCOSMO and CPCM-X implicit solvation:
   * M. Stahn, S. Ehlert, S. Grimme, J. Phys. Chem. A,
     2023, XX, XXXX-XXXX. DOI: 10.1021/acs.jpca.3c04382
   
   for DFT-D4:
   * E. Caldeweyher, C. Bannwarth and S. Grimme, J. Chem. Phys., 2017,
     147, 034112. DOI: 10.1063/1.4993215
   * E. Caldeweyher, S. Ehlert, A. Hansen, H. Neugebauer, S. Spicher,
     C. Bannwarth and S. Grimme, J. Chem. Phys., 2019, 150, 154122.
     DOI: 10.1063/1.5090222
   * E. Caldeweyher, J.-M. Mewes, S. Ehlert and S. Grimme, Phys. Chem. Chem. Phys.
     2020, 22, 8499-8512. DOI: 10.1039/D0CP00502A
   
   for sTDA-xTB:
   * S. Grimme and C. Bannwarth, J. Chem. Phys., 2016, 145, 054103.
     DOI: 10.1063/1.4959605
   
   in the mass-spec context:
   * V. Asgeirsson, C. Bauer and S. Grimme, Chem. Sci., 2017, 8, 4879.
     DOI: 10.1039/c7sc00601b
   * J. Koopman and S. Grimme, ACS Omega 2019, 4, 12, 15120-15133.
     DOI: 10.1021/acsomega.9b02011
   
   for metadynamics refer to:
   * S. Grimme, J. Chem. Theory Comput., 2019, 155, 2847-2862
     DOI: 10.1021/acs.jctc.9b00143
   
   for SPH calculations refer to:
   * S. Spicher and S. Grimme, J. Chem. Theory Comput., 2021, 17, 1701-1714
     DOI: 10.1021/acs.jctc.0c01306
   
   for ONIOM refer to:
   * C. Plett, A. Katbashev, S. Ehlert, S. Grimme, M. Bursch,
     Phys. Chem. Chem. Phys., 2023, 25, 17860-17868. DOI: 10.1039/D3CP02178E
   
   for DIPRO refer to:
   * J. Kohn, N. Gildemeister, S. Grimme, D. Fazzi, A. Hansen,
     J. Chem. Phys., 2023, just accepted.
   
   for PTB refer to:
   * S. Grimme, M. Mueller, A. Hansen, J. Chem. Phys., 2023, 158, 124111.
     DOI: 10.1063/5.0137838
   
   with help from (in alphabetical order)
   P. Atkinson, C. Bannwarth, F. Bohle, G. Brandenburg, E. Caldeweyher
   M. Checinski, S. Dohm, S. Ehlert, S. Ehrlich, I. Gerasimov, C. Hölzer
   A. Katbashev, J. Kohn, J. Koopman, C. Lavigne, S. Lehtola, F. März, M. Müller,
   F. Musil, H. Neugebauer, J. Pisarek, C. Plett, P. Pracht, F. Pultar,
   J. Seibert, P. Shushkov, S. Spicher, M. Stahn, M. Steiner, T. Strunk,
   J. Stückrath, T. Rose, and J. Unsleber
   
 * started run on 2026/06/19 at 18:52:40.834     
   ID    Z sym.   atoms
    1    6 C      1-11, 13, 18, 20, 22-25, 29, 31, 33, 34, 36-41, 43-50,
                  53-57, 59, 64-81
    2    8 O      12, 14-17, 19, 21, 26-28, 30, 32, 35, 42, 51, 52, 58, 60-63
    3    1 H      82-153

           -------------------------------------------------
          |                Calculation Setup                |
           -------------------------------------------------

          program call               : xtb PAPU-0081/conf01.xyz --gfn 2 --alpb water --chrg 0 --uhf 0 --namespace PAPU-0081/conf01_water
          hostname                   : cpu10
          calculation namespace      : PAPU-0081/conf01_water
          coordinate file            : PAPU-0081/conf01.xyz
          omp threads                :                    16


           -------------------------------------------------
          |                 G F N 2 - x T B                 |
           -------------------------------------------------

        Reference                      10.1021/acs.jctc.8b01176
      * Hamiltonian:
        H0-scaling (s, p, d)           1.850000    2.230000    2.230000
        zeta-weighting                 0.500000
      * Dispersion:
        s8                             2.700000
        a1                             0.520000
        a2                             5.000000
        s9                             5.000000
      * Repulsion:
        kExp                           1.500000    1.000000
        rExp                           1.000000
      * Coulomb:
        alpha                          2.000000
        third order                    shell-resolved
        anisotropic                    true
        a3                             3.000000
        a5                             4.000000
        cn-shift                       1.200000
        cn-exp                         4.000000
        max-rad                        5.000000

      * Solvation model:               ALPB
        Solvent                        water
        Parameter file                 internal GFN2-xTB/ALPB
        Dielectric constant                8.0200E+01
        Reference state                gsolv [1 M gas/solution]
        Free energy shift                  1.0808E-03 Eh       6.7819E-01 kcal/mol
        Temperature                        2.9815E+02 K
        Density                            1.0000E+00 kg/L
        Solvent mass                       1.8000E+01 g/mol
        Interaction kernel             P16
        Born radius scaling (c1)           1.4744E+00
        Born radii integrator          GBOBC
        Born offset                        0.0000E+00 a0       0.0000E+00 AA
        H-bond correction              true
        Ion screening                  false
        Surface tension                    1.0000E-05 Eh       1.5569E+01 dyn/cm
        Grid points                               230 per atom

          ...................................................
          :                      SETUP                      :
          :.................................................:
          :  # basis functions                 396          :
          :  # atomic orbitals                 396          :
          :  # shells                          234          :
          :  # electrons                       438          :
          :  max. iterations                   250          :
          :  Hamiltonian                  GFN2-xTB          :
          :  restarted?                      false          :
          :  GBSA solvation                   true          :
          :  PC potential                    false          :
          :  electronic temp.          300.0000000     K    :
          :  accuracy                    1.0000000          :
          :  -> integral cutoff          0.2500000E+02      :
          :  -> integral neglect         0.1000000E-07      :
          :  -> SCF convergence          0.1000000E-05 Eh   :
          :  -> wf. convergence          0.1000000E-03 e    :
          :  Broyden damping             0.4000000          :
          :  net charge                          0          :
          :  unpaired electrons                  0          :
          ...................................................

 iter      E             dE          RMSdq      gap      omega  full diag
   1   -253.2825839 -0.253283E+03  0.451E+00    2.41       0.0  T
   2   -253.5181378 -0.235554E+00  0.248E+00    1.86       1.0  T
   3   -253.5071594  0.109784E-01  0.941E-01    1.79       1.0  T
   4   -253.5390043 -0.318449E-01  0.283E-01    1.57       1.0  T
   5   -253.5435284 -0.452411E-02  0.123E-01    1.57       1.0  T
   6   -253.5440994 -0.570962E-03  0.646E-02    1.58       1.0  T
   7   -253.5442455 -0.146161E-03  0.316E-02    1.58       1.0  T
   8   -253.5442901 -0.445708E-04  0.149E-02    1.58       1.0  T
   9   -253.5443001 -0.100178E-04  0.656E-03    1.57       1.2  T
  10   -253.5443015 -0.137455E-05  0.390E-03    1.57       2.1  T
  11   -253.5443021 -0.603620E-06  0.206E-03    1.57       3.9  T
  12   -253.5443023 -0.204531E-06  0.844E-04    1.57       9.6  T
  13   -253.5443023 -0.354895E-07  0.440E-04    1.57      18.4  T

   *** convergence criteria satisfied after 13 iterations ***

         #    Occupation            Energy/Eh            Energy/eV
      -------------------------------------------------------------
         1        2.0000           -0.7788715             -21.1942
       ...           ...                  ...                  ...
       213        2.0000           -0.4039950             -10.9933
       214        2.0000           -0.4029637             -10.9652
       215        2.0000           -0.4025918             -10.9551
       216        2.0000           -0.3981628             -10.8346
       217        2.0000           -0.3834255             -10.4335
       218        2.0000           -0.3802616             -10.3474
       219        2.0000           -0.3747666             -10.1979 (HOMO)
       220                         -0.3171013              -8.6288 (LUMO)
       221                         -0.2819595              -7.6725
       222                         -0.2447627              -6.6603
       223                         -0.2442765              -6.6471
       224                         -0.2336095              -6.3568
       ...                                ...                  ...
       396                          0.7048772              19.1807
      -------------------------------------------------------------
                  HL-Gap            0.0576654 Eh            1.5692 eV
             Fermi-level           -0.3459340 Eh           -9.4133 eV

 SCC (total)                   0 d,  0 h,  0 min,  0.288 sec
 SCC setup                      ...        0 min,  0.003 sec (  1.197%)
 Dispersion                     ...        0 min,  0.005 sec (  1.615%)
 classical contributions        ...        0 min,  0.000 sec (  0.045%)
 integral evaluation            ...        0 min,  0.012 sec (  4.326%)
 iterations                     ...        0 min,  0.221 sec ( 76.837%)
 molecular gradient             ...        0 min,  0.044 sec ( 15.334%)
 printout                       ...        0 min,  0.002 sec (  0.634%)

         :::::::::::::::::::::::::::::::::::::::::::::::::::::
         ::                     SUMMARY                     ::
         :::::::::::::::::::::::::::::::::::::::::::::::::::::
         :: total energy            -250.625476403343 Eh    ::
         :: total w/o Gsasa/hb      -250.585415068343 Eh    ::
         :: gradient norm              0.122191022900 Eh/a0 ::
         :: HOMO-LUMO gap              1.569154333386 eV    ::
         ::.................................................::
         :: SCC energy              -253.528267092914 Eh    ::
         :: -> isotropic ES            0.553801883195 Eh    ::
         :: -> anisotropic ES         -0.024591461523 Eh    ::
         :: -> anisotropic XC          0.032386824058 Eh    ::
         :: -> dispersion             -0.212453285290 Eh    ::
         :: -> Gsolv                  -0.094724935666 Eh    ::
         ::    -> Gelec               -0.054663600666 Eh    ::
         ::    -> Gsasa                0.006443514041 Eh    ::
         ::    -> Ghb                 -0.047585608739 Eh    ::
         ::    -> Gshift               0.001080759698 Eh    ::
         :: repulsion energy           2.902790689571 Eh    ::
         :: add. restraining           0.000000000000 Eh    ::
         :: total charge              -0.000000000000 e     ::
         :::::::::::::::::::::::::::::::::::::::::::::::::::::

           -------------------------------------------------
          |                Property Printout                |
           -------------------------------------------------

    * Orbital Energies and Occupations

         #    Occupation            Energy/Eh            Energy/eV
      -------------------------------------------------------------
         1        2.0000           -0.7788715             -21.1942
       ...           ...                  ...                  ...
       207        2.0000           -0.4124039             -11.2221
       208        2.0000           -0.4120443             -11.2123
       209        2.0000           -0.4111453             -11.1878
       210        2.0000           -0.4074128             -11.0863
       211        2.0000           -0.4068960             -11.0722
       212        2.0000           -0.4046454             -11.0110
       213        2.0000           -0.4039950             -10.9933
       214        2.0000           -0.4029637             -10.9652
       215        2.0000           -0.4025918             -10.9551
       216        2.0000           -0.3981628             -10.8346
       217        2.0000           -0.3834255             -10.4335
       218        2.0000           -0.3802616             -10.3474
       219        2.0000           -0.3747666             -10.1979 (HOMO)
       220                         -0.3171013              -8.6288 (LUMO)
       221                         -0.2819595              -7.6725
       222                         -0.2447627              -6.6603
       223                         -0.2442765              -6.6471
       224                         -0.2336095              -6.3568
       225                         -0.2308081              -6.2806
       226                         -0.2275428              -6.1918
       227                         -0.2243524              -6.1049
       228                         -0.2204917              -5.9999
       229                         -0.2191162              -5.9625
       230                         -0.2104256              -5.7260
       ...                                ...                  ...
       396                          0.7048772              19.1807
      -------------------------------------------------------------
                  HL-Gap            0.0576654 Eh            1.5692 eV
             Fermi-level           -0.3459340 Eh           -9.4133 eV

     #   Z          covCN         q      C6AA      α(0)
     1   6 C        2.842     0.140    24.936     8.184
     2   6 C        2.972    -0.047    29.168     8.859
     3   6 C        2.964    -0.001    28.061     8.689
     4   6 C        2.929    -0.070    29.748     8.945
     5   6 C        2.836     0.148    24.772     8.156
     6   6 C        2.921    -0.098    30.460     9.051
     7   6 C        3.741     0.105    18.919     6.206
     8   6 C        3.720     0.100    19.038     6.232
     9   6 C        3.750     0.107    18.889     6.198
    10   6 C        3.744     0.101    18.983     6.215
    11   6 C        3.739     0.099    19.028     6.224
    12   8 O        1.695    -0.344    19.773     6.003
    13   6 C        3.683     0.077    19.496     6.323
    14   8 O        1.652    -0.481    22.493     6.402
    15   8 O        1.651    -0.480    22.465     6.398
    16   8 O        1.698    -0.328    19.486     5.960
    17   8 O        1.702    -0.294    18.889     5.868
    18   6 C        3.676     0.079    19.481     6.324
    19   8 O        1.654    -0.510    23.117     6.490
    20   6 C        3.638     0.249    17.079     5.945
    21   8 O        1.696    -0.361    20.092     6.052
    22   6 C        3.745     0.114    18.787     6.183
    23   6 C        3.723     0.094    19.123     6.245
    24   6 C        3.723     0.092    19.155     6.250
    25   6 C        3.754     0.090    19.147     6.239
    26   8 O        1.654    -0.488    22.630     6.422
    27   8 O        1.699    -0.322    19.375     5.943
    28   8 O        1.653    -0.493    22.749     6.439
    29   6 C        3.745     0.072    19.444     6.290
    30   8 O        1.703    -0.280    18.645     5.830
    31   6 C        2.766     0.348    21.088     7.521
    32   8 O        0.857    -0.468    23.087     6.442
    33   6 C        2.726     0.357    20.947     7.493
    34   6 C        2.897    -0.085    30.140     9.001
    35   8 O        0.858    -0.493    23.638     6.519
    36   6 C        2.903     0.001    28.004     8.677
    37   6 C        2.898    -0.044    29.099     8.845
    38   6 C        2.896     0.001    27.993     8.675
    39   6 C        3.805    -0.073    21.893     6.661
    40   6 C        3.729     0.123    18.661     6.167
    41   6 C        2.894    -0.070    29.746     8.942
    42   8 O        1.652    -0.513    23.177     6.499
    43   6 C        2.899    -0.034    28.848     8.807
    44   6 C        2.898    -0.054    29.347     8.882
    45   6 C        2.896    -0.036    28.894     8.813
    46   6 C        3.806    -0.062    21.695     6.631
    47   6 C        3.802    -0.050    21.470     6.597
    48   6 C        3.801    -0.060    21.655     6.626
    49   6 C        3.800    -0.055    21.556     6.610
    50   6 C        3.750    -0.103    22.525     6.768
    51   8 O        1.656    -0.439    21.624     6.277
    52   8 O        1.657    -0.448    21.799     6.303
    53   6 C        3.653     0.235    17.216     5.958
    54   6 C        3.723     0.089    19.211     6.259
    55   6 C        3.724     0.098    19.061     6.234
    56   6 C        3.722     0.092    19.170     6.253
    57   6 C        3.744     0.105    18.927     6.206
    58   8 O        1.696    -0.371    20.278     6.080
    59   6 C        3.674     0.073    19.584     6.341
    60   8 O        1.653    -0.496    22.812     6.447
    61   8 O        1.654    -0.487    22.615     6.420
    62   8 O        1.653    -0.493    22.734     6.436
    63   8 O        1.653    -0.477    22.405     6.390
    64   6 C        2.975    -0.025    28.611     8.774
    65   6 C        2.925    -0.018    28.458     8.748
    66   6 C        2.925    -0.030    28.755     8.794
    67   6 C        2.977     0.023    27.485     8.600
    68   6 C        2.927    -0.032    28.796     8.800
    69   6 C        2.925    -0.025    28.626     8.774
    70   6 C        2.977     0.009    27.813     8.651
    71   6 C        2.925    -0.032    28.794     8.800
    72   6 C        2.924    -0.034    28.836     8.806
    73   6 C        2.976     0.009    27.810     8.650
    74   6 C        2.924    -0.034    28.853     8.809
    75   6 C        2.922    -0.033    28.821     8.804
    76   6 C        2.976     0.007    27.852     8.657
    77   6 C        2.928    -0.036    28.894     8.815
    78   6 C        2.920    -0.034    28.856     8.809
    79   6 C        2.924    -0.036    28.896     8.815
    80   6 C        2.920    -0.035    28.871     8.811
    81   6 C        2.928    -0.038    28.956     8.825
    82   1 H        0.926     0.069     2.096     2.264
    83   1 H        0.926     0.073     2.048     2.238
    84   1 H        0.924     0.043     2.415     2.430
    85   1 H        0.923     0.054     2.271     2.357
    86   1 H        0.924     0.038     2.476     2.461
    87   1 H        0.923     0.095     1.828     2.114
    88   1 H        0.923     0.049     2.333     2.388
    89   1 H        0.924     0.058     2.222     2.331
    90   1 H        0.924     0.022     2.701     2.570
    91   1 H        0.801     0.320     0.665     1.282
    92   1 H        0.802     0.326     0.649     1.266
    93   1 H        0.924     0.046     2.372     2.409
    94   1 H        0.924     0.057     2.235     2.338
    95   1 H        0.804     0.384     0.514     1.126
    96   1 H        0.923     0.001     3.034     2.724
    97   1 H        0.923     0.027     2.626     2.534
    98   1 H        0.923     0.050     2.314     2.379
    99   1 H        0.923     0.046     2.367     2.406
   100   1 H        0.923     0.090     1.876     2.142
   101   1 H        0.804     0.373     0.538     1.152
   102   1 H        0.803     0.381     0.521     1.134
   103   1 H        0.924     0.100     1.781     2.087
   104   1 H        0.924     0.084     1.939     2.177
   105   1 H        0.926     0.092     1.861     2.133
   106   1 H        0.926     0.068     2.109     2.271
   107   1 H        0.926     0.073     2.054     2.241
   108   1 H        0.926     0.072     2.065     2.247
   109   1 H        0.924     0.086     1.922     2.168
   110   1 H        0.924     0.068     2.112     2.273
   111   1 H        0.923     0.034     2.534     2.490
   112   1 H        0.926     0.048     2.350     2.397
   113   1 H        0.804     0.351     0.585     1.201
   114   1 H        0.926     0.042     2.426     2.436
   115   1 H        0.926     0.043     2.404     2.425
   116   1 H        0.926     0.028     2.618     2.530
   117   1 H        0.924     0.056     2.246     2.344
   118   1 H        0.924     0.046     2.374     2.410
   119   1 H        0.924     0.021     2.716     2.577
   120   1 H        0.924     0.019     2.754     2.595
   121   1 H        0.924     0.031     2.568     2.506
   122   1 H        0.924     0.030     2.581     2.512
   123   1 H        0.924     0.030     2.584     2.514
   124   1 H        0.924     0.023     2.689     2.564
   125   1 H        0.924     0.036     2.497     2.471
   126   1 H        0.924     0.033     2.549     2.497
   127   1 H        0.924     0.035     2.511     2.478
   128   1 H        0.803     0.345     0.600     1.217
   129   1 H        0.804     0.379     0.525     1.138
   130   1 H        0.923     0.014     2.830     2.631
   131   1 H        0.923     0.059     2.215     2.327
   132   1 H        0.923     0.035     2.512     2.479
   133   1 H        0.923     0.049     2.339     2.392
   134   1 H        0.924     0.011     2.872     2.650
   135   1 H        0.924     0.086     1.921     2.167
   136   1 H        0.924     0.060     2.202     2.321
   137   1 H        0.803     0.381     0.521     1.134
   138   1 H        0.804     0.379     0.525     1.138
   139   1 H        0.804     0.370     0.543     1.158
   140   1 H        0.802     0.307     0.702     1.316
   141   1 H        0.926     0.057     2.229     2.335
   142   1 H        0.926     0.058     2.227     2.333
   143   1 H        0.926     0.072     2.063     2.246
   144   1 H        0.926     0.065     2.139     2.287
   145   1 H        0.926     0.028     2.609     2.526
   146   1 H        0.926     0.041     2.430     2.438
   147   1 H        0.926     0.041     2.434     2.440
   148   1 H        0.926     0.043     2.403     2.424
   149   1 H        0.926     0.035     2.519     2.482
   150   1 H        0.926     0.037     2.490     2.468
   151   1 H        0.926     0.035     2.514     2.480
   152   1 H        0.926     0.037     2.488     2.467
   153   1 H        0.926     0.037     2.492     2.469

 Mol. C6AA /au·bohr⁶  :     242356.851616
 Mol. C8AA /au·bohr⁸  :    5617847.543236
 Mol. α(0) /au        :        749.140488


Wiberg/Mayer (AO) data.
largest (>0.10) Wiberg bond orders for each atom

 ---------------------------------------------------------------------------
     #   Z sym  total        # sym  WBO       # sym  WBO       # sym  WBO
 ---------------------------------------------------------------------------
     1   6 C    3.943 --     6 C    1.391     2 C    1.334    51 O    1.070
     2   6 C    3.971 --     3 C    1.388     1 C    1.334     7 C    0.989
     3   6 C    3.987 --     4 C    1.427     2 C    1.388    13 C    1.000
     4   6 C    3.983 --     3 C    1.427     5 C    1.360    82 H    0.964
     5   6 C    3.945 --     6 C    1.379     4 C    1.360    52 O    1.079
     6   6 C    3.978 --     1 C    1.391     5 C    1.379    83 H    0.961
     7   6 C    3.938 --     2 C    0.989    84 H    0.952     8 C    0.951
                            12 O    0.950
     8   6 C    3.951 --    15 O    0.988     9 C    0.965    85 H    0.955
                             7 C    0.951
     9   6 C    3.929 --    10 C    0.970     8 C    0.965    86 H    0.953
                            17 O    0.936
    10   6 C    3.932 --     9 C    0.970    16 O    0.960    11 C    0.960
                            87 H    0.950
    11   6 C    3.947 --    18 C    0.988    12 O    0.965    10 C    0.960
                            88 H    0.949
    12   8 O    2.078 --    11 C    0.965     7 C    0.950
    13   6 C    3.959 --     3 C    1.000    14 O    0.989    89 H    0.968
                            90 H    0.957
    14   8 O    1.937 --    13 C    0.989    91 H    0.848
    15   8 O    1.952 --     8 C    0.988    92 H    0.834
    16   8 O    2.090 --    20 C    0.982    10 C    0.960
    17   8 O    2.273 --    33 C    1.090     9 C    0.936    35 O    0.142
    18   6 C    3.960 --    19 O    1.006    11 C    0.988    94 H    0.967
                            93 H    0.966
    19   8 O    1.898 --    18 C    1.006    95 H    0.839
    20   6 C    3.927 --    16 O    0.982    21 O    0.957    25 C    0.954
                            96 H    0.942
    21   8 O    2.055 --    20 C    0.957    22 C    0.948
    22   6 C    3.939 --    29 C    0.982    23 C    0.969    97 H    0.953
                            21 O    0.948
    23   6 C    3.967 --    28 O    1.008    22 C    0.969    24 C    0.967
                            98 H    0.957
    24   6 C    3.963 --    26 O    1.001    23 C    0.967    25 C    0.964
                            99 H    0.954
    25   6 C    3.939 --    27 O    0.966    24 C    0.964    20 C    0.954
                           100 H    0.952
    26   8 O    1.926 --    24 C    1.001   101 H    0.843
    27   8 O    2.089 --    53 C    0.981    25 C    0.966
    28   8 O    1.913 --    23 C    1.008   102 H    0.833
    29   6 C    3.925 --    22 C    0.982   103 H    0.962    30 O    0.961
                           104 H    0.959
    30   8 O    2.267 --    31 C    1.081    29 C    0.961    32 O    0.148
    31   6 C    3.895 --    32 O    1.696    30 O    1.081    64 C    1.025
    32   8 O    1.987 --    31 C    1.696    30 O    0.148
    33   6 C    3.894 --    35 O    1.598    17 O    1.090    34 C    1.088
    34   6 C    3.964 --    36 C    1.694    33 C    1.088   105 H    0.955
                            38 C    0.110
    35   8 O    1.961 --    33 C    1.598    17 O    0.142
    36   6 C    3.975 --    34 C    1.694    37 C    1.172   106 H    0.956
    37   6 C    3.985 --    38 C    1.757    36 C    1.172   107 H    0.958
    38   6 C    3.953 --    37 C    1.757    39 C    1.047   108 H    0.960
                            34 C    0.110
    39   6 C    3.984 --    38 C    1.047   110 H    0.969   109 H    0.954
                            40 C    0.942
    40   6 C    3.944 --    41 C    1.005    42 O    0.977   111 H    0.959
                            39 C    0.942
    41   6 C    3.979 --    43 C    1.839    40 C    1.005   112 H    0.965
                            45 C    0.119
    42   8 O    1.909 --    40 C    0.977   113 H    0.861
    43   6 C    3.990 --    41 C    1.839    44 C    1.116   114 H    0.960
    44   6 C    3.989 --    45 C    1.835    43 C    1.116   115 H    0.962
    45   6 C    3.984 --    44 C    1.835    46 C    1.032   116 H    0.965
                            41 C    0.119
    46   6 C    3.996 --    45 C    1.032    47 C    1.005   118 H    0.963
                           117 H    0.950
    47   6 C    3.996 --    48 C    1.008    46 C    1.005   120 H    0.975
                           119 H    0.975
    48   6 C    3.996 --    47 C    1.008    49 C    1.007   121 H    0.977
                           122 H    0.973
    49   6 C    3.995 --    50 C    1.021    48 C    1.007   124 H    0.973
                           123 H    0.971
    50   6 C    3.996 --    49 C    1.021   127 H    0.987   126 H    0.986
                           125 H    0.986
    51   8 O    2.080 --     1 C    1.070   128 H    0.835
    52   8 O    2.076 --     5 C    1.079   129 H    0.838
    53   6 C    3.917 --    27 O    0.981    54 C    0.956    58 O    0.951
                           130 H    0.943
    54   6 C    3.959 --    62 O    1.000    55 C    0.970    53 C    0.956
                           131 H    0.955
    55   6 C    3.966 --    61 O    1.004    54 C    0.970    56 C    0.967
                           132 H    0.956
    56   6 C    3.967 --    60 O    1.008    55 C    0.967    57 C    0.966
                           133 H    0.956
    57   6 C    3.937 --    59 C    0.982    56 C    0.966    58 O    0.950
                           134 H    0.944
    58   8 O    2.054 --    53 C    0.951    57 C    0.950
    59   6 C    3.947 --    63 O    1.001    57 C    0.982   135 H    0.965
                           136 H    0.964
    60   8 O    1.913 --    56 C    1.008   137 H    0.832
    61   8 O    1.925 --    55 C    1.004   138 H    0.839
    62   8 O    1.918 --    54 C    1.000   139 H    0.844
    63   8 O    1.941 --    59 C    1.001   140 H    0.860
    64   6 C    3.977 --    69 C    1.373    65 C    1.366    31 C    1.025
    65   6 C    3.986 --    66 C    1.469    64 C    1.366   141 H    0.963
                            68 C    0.100
    66   6 C    3.987 --    65 C    1.469    67 C    1.378   142 H    0.966
    67   6 C    3.985 --    68 C    1.379    66 C    1.378    70 C    1.040
    68   6 C    3.986 --    69 C    1.466    67 C    1.379   143 H    0.959
                            65 C    0.100
    69   6 C    3.986 --    68 C    1.466    64 C    1.373   144 H    0.961
    70   6 C    3.983 --    75 C    1.384    71 C    1.380    67 C    1.040
                            73 C    0.101
    71   6 C    3.988 --    72 C    1.464    70 C    1.380   145 H    0.967
                            74 C    0.102
    72   6 C    3.990 --    71 C    1.464    73 C    1.381   146 H    0.966
                            75 C    0.103
    73   6 C    3.983 --    74 C    1.382    72 C    1.381    76 C    1.044
                            70 C    0.101
    74   6 C    3.991 --    75 C    1.464    73 C    1.382   147 H    0.967
                            71 C    0.102
    75   6 C    3.988 --    74 C    1.464    70 C    1.384   148 H    0.968
                            72 C    0.103
    76   6 C    3.989 --    81 C    1.389    77 C    1.389    73 C    1.044
                            79 C    0.107
    77   6 C    3.990 --    78 C    1.453    76 C    1.389   149 H    0.968
                            80 C    0.108
    78   6 C    3.992 --    77 C    1.453    79 C    1.435   150 H    0.970
                            81 C    0.108
    79   6 C    3.987 --    78 C    1.435    80 C    1.434   151 H    0.971
                            76 C    0.107
    80   6 C    3.992 --    81 C    1.453    79 C    1.434   152 H    0.970
                            77 C    0.108
    81   6 C    3.990 --    80 C    1.453    76 C    1.389   153 H    0.968
                            78 C    0.108
    82   1 H    0.995 --     4 C    0.964
    83   1 H    0.994 --     6 C    0.961
    84   1 H    0.998 --     7 C    0.952
    85   1 H    0.997 --     8 C    0.955
    86   1 H    0.998 --     9 C    0.953
    87   1 H    0.990 --    10 C    0.950
    88   1 H    0.998 --    11 C    0.949
    89   1 H    0.996 --    13 C    0.968
    90   1 H    0.999 --    13 C    0.957
    91   1 H    0.898 --    14 O    0.848
    92   1 H    0.894 --    15 O    0.834
    93   1 H    0.997 --    18 C    0.966
    94   1 H    0.996 --    18 C    0.967
    95   1 H    0.852 --    19 O    0.839
    96   1 H    1.000 --    20 C    0.942
    97   1 H    0.999 --    22 C    0.953
    98   1 H    0.997 --    23 C    0.957
    99   1 H    0.998 --    24 C    0.954
   100   1 H    0.991 --    25 C    0.952
   101   1 H    0.861 --    26 O    0.843
   102   1 H    0.855 --    28 O    0.833
   103   1 H    0.989 --    29 C    0.962
   104   1 H    0.992 --    29 C    0.959
   105   1 H    0.991 --    34 C    0.955
   106   1 H    0.995 --    36 C    0.956
   107   1 H    0.995 --    37 C    0.958
   108   1 H    0.995 --    38 C    0.960
   109   1 H    0.987 --    39 C    0.954
   110   1 H    0.995 --    39 C    0.969
   111   1 H    0.996 --    40 C    0.959
   112   1 H    0.998 --    41 C    0.965
   113   1 H    0.876 --    42 O    0.861
   114   1 H    0.998 --    43 C    0.960
   115   1 H    0.998 --    44 C    0.962
   116   1 H    0.999 --    45 C    0.965
   117   1 H    0.990 --    46 C    0.950
   118   1 H    0.998 --    46 C    0.963
   119   1 H    0.999 --    47 C    0.975
   120   1 H    1.000 --    47 C    0.975
   121   1 H    0.999 --    48 C    0.977
   122   1 H    0.999 --    48 C    0.973
   123   1 H    0.999 --    49 C    0.971
   124   1 H    0.999 --    49 C    0.973
   125   1 H    0.998 --    50 C    0.986
   126   1 H    0.999 --    50 C    0.986
   127   1 H    0.999 --    50 C    0.987
   128   1 H    0.880 --    51 O    0.835
   129   1 H    0.856 --    52 O    0.838
   130   1 H    1.000 --    53 C    0.943
   131   1 H    0.996 --    54 C    0.955
   132   1 H    0.999 --    55 C    0.956
   133   1 H    0.997 --    56 C    0.956
   134   1 H    1.000 --    57 C    0.944
   135   1 H    0.993 --    59 C    0.965
   136   1 H    0.996 --    59 C    0.964
   137   1 H    0.855 --    60 O    0.832
   138   1 H    0.856 --    61 O    0.839
   139   1 H    0.863 --    62 O    0.844
   140   1 H    0.906 --    63 O    0.860
   141   1 H    0.996 --    65 C    0.963
   142   1 H    0.996 --    66 C    0.966
   143   1 H    0.994 --    68 C    0.959
   144   1 H    0.995 --    69 C    0.961
   145   1 H    0.999 --    71 C    0.967
   146   1 H    0.998 --    72 C    0.966
   147   1 H    0.998 --    74 C    0.967
   148   1 H    0.998 --    75 C    0.968
   149   1 H    0.999 --    77 C    0.968
   150   1 H    0.998 --    78 C    0.970
   151   1 H    0.998 --    79 C    0.971
   152   1 H    0.998 --    80 C    0.970
   153   1 H    0.999 --    81 C    0.968
 ---------------------------------------------------------------------------

Topologies differ in total number of bonds
Writing topology from bond orders to xtbtopo.mol

molecular dipole:
                 x           y           z       tot (Debye)
 q only:       -1.099       4.257       3.132
   full:       -0.524       4.467       3.327      14.219
molecular quadrupole (traceless):
                xx          xy          yy          xz          yz          zz
 q only:       18.382      -4.699      20.281      27.320     -14.647     -38.663
  q+dip:       23.466     -17.200      20.799      26.892     -13.456     -44.265
   full:       21.093     -15.725      17.802      29.003     -12.650     -38.896


           -------------------------------------------------
          | TOTAL ENERGY             -250.625476403343 Eh   |
          | GRADIENT NORM               0.122191022900 Eh/α |
          | HOMO-LUMO GAP               1.569154333386 eV   |
           -------------------------------------------------

------------------------------------------------------------------------
 * finished run on 2026/06/19 at 18:52:41.209     
------------------------------------------------------------------------
 total:
 * wall-time:     0 d,  0 h,  0 min,  0.374 sec
 *  cpu-time:     0 d,  0 h,  0 min,  5.748 sec
 * ratio c/w:    15.354 speedup
 SCF:
 * wall-time:     0 d,  0 h,  0 min,  0.289 sec
 *  cpu-time:     0 d,  0 h,  0 min,  4.576 sec
 * ratio c/w:    15.860 speedup

normal termination of xtb
