      -----------------------------------------------------------      
     |                   =====================                   |     
     |                           x T B                           |     
     |                   =====================                   |     
     |                         S. Grimme                         |     
     |          Mulliken Center for Theoretical Chemistry        |     
     |                    University of Bonn                     |     
      -----------------------------------------------------------      

   * xtb version 6.7.1 (edcfbbe) compiled by 'albert@albert-system' on 2024-07-22

   xtb is free software: you can redistribute it and/or modify it under
   the terms of the GNU Lesser General Public License as published by
   the Free Software Foundation, either version 3 of the License, or
   (at your option) any later version.
   
   xtb is distributed in the hope that it will be useful,
   but WITHOUT ANY WARRANTY; without even the implied warranty of
   MERCHANTABILITY or FITNESS FOR A PARTICULAR PURPOSE.  See the
   GNU Lesser General Public License for more details.
   
   Cite this work as:
   * C. Bannwarth, E. Caldeweyher, S. Ehlert, A. Hansen, P. Pracht,
     J. Seibert, S. Spicher, S. Grimme, WIREs Comput. Mol. Sci., 2020, 11,
     e01493. DOI: 10.1002/wcms.1493
   
   for GFN2-xTB:
   * C. Bannwarth, S. Ehlert and S. Grimme., J. Chem. Theory Comput., 2019,
     15, 1652-1671. DOI: 10.1021/acs.jctc.8b01176
   for GFN1-xTB:
   * S. Grimme, C. Bannwarth, P. Shushkov, J. Chem. Theory Comput., 2017,
     13, 1989-2009. DOI: 10.1021/acs.jctc.7b00118
   for GFN0-xTB:
   * P. Pracht, E. Caldeweyher, S. Ehlert, S. Grimme, ChemRxiv, 2019, preprint.
     DOI: 10.26434/chemrxiv.8326202.v1
   for GFN-FF:
   * S. Spicher and S. Grimme, Angew. Chem. Int. Ed., 2020, 59, 15665-15673.
     DOI: 10.1002/anie.202004239
   
   for ALPB and GBSA implicit solvation:
   * S. Ehlert, M. Stahn, S. Spicher, S. Grimme, J. Chem. Theory Comput.,
     2021, 17, 4250-4261. DOI: 10.1021/acs.jctc.1c00471
   
   for ddCOSMO and CPCM-X implicit solvation:
   * M. Stahn, S. Ehlert, S. Grimme, J. Phys. Chem. A,
     2023, XX, XXXX-XXXX. DOI: 10.1021/acs.jpca.3c04382
   
   for DFT-D4:
   * E. Caldeweyher, C. Bannwarth and S. Grimme, J. Chem. Phys., 2017,
     147, 034112. DOI: 10.1063/1.4993215
   * E. Caldeweyher, S. Ehlert, A. Hansen, H. Neugebauer, S. Spicher,
     C. Bannwarth and S. Grimme, J. Chem. Phys., 2019, 150, 154122.
     DOI: 10.1063/1.5090222
   * E. Caldeweyher, J.-M. Mewes, S. Ehlert and S. Grimme, Phys. Chem. Chem. Phys.
     2020, 22, 8499-8512. DOI: 10.1039/D0CP00502A
   
   for sTDA-xTB:
   * S. Grimme and C. Bannwarth, J. Chem. Phys., 2016, 145, 054103.
     DOI: 10.1063/1.4959605
   
   in the mass-spec context:
   * V. Asgeirsson, C. Bauer and S. Grimme, Chem. Sci., 2017, 8, 4879.
     DOI: 10.1039/c7sc00601b
   * J. Koopman and S. Grimme, ACS Omega 2019, 4, 12, 15120-15133.
     DOI: 10.1021/acsomega.9b02011
   
   for metadynamics refer to:
   * S. Grimme, J. Chem. Theory Comput., 2019, 155, 2847-2862
     DOI: 10.1021/acs.jctc.9b00143
   
   for SPH calculations refer to:
   * S. Spicher and S. Grimme, J. Chem. Theory Comput., 2021, 17, 1701-1714
     DOI: 10.1021/acs.jctc.0c01306
   
   for ONIOM refer to:
   * C. Plett, A. Katbashev, S. Ehlert, S. Grimme, M. Bursch,
     Phys. Chem. Chem. Phys., 2023, 25, 17860-17868. DOI: 10.1039/D3CP02178E
   
   for DIPRO refer to:
   * J. Kohn, N. Gildemeister, S. Grimme, D. Fazzi, A. Hansen,
     J. Chem. Phys., 2023, just accepted.
   
   for PTB refer to:
   * S. Grimme, M. Mueller, A. Hansen, J. Chem. Phys., 2023, 158, 124111.
     DOI: 10.1063/5.0137838
   
   with help from (in alphabetical order)
   P. Atkinson, C. Bannwarth, F. Bohle, G. Brandenburg, E. Caldeweyher
   M. Checinski, S. Dohm, S. Ehlert, S. Ehrlich, I. Gerasimov, C. Hölzer
   A. Katbashev, J. Kohn, J. Koopman, C. Lavigne, S. Lehtola, F. März, M. Müller,
   F. Musil, H. Neugebauer, J. Pisarek, C. Plett, P. Pracht, F. Pultar,
   J. Seibert, P. Shushkov, S. Spicher, M. Stahn, M. Steiner, T. Strunk,
   J. Stückrath, T. Rose, and J. Unsleber
   
 * started run on 2026/06/19 at 18:52:41.964     
   ID    Z sym.   atoms
    1    6 C      1-11, 13, 18, 20, 22-25, 29, 31, 33, 34, 36-41, 43-50,
                  53-57, 59, 64-81
    2    8 O      12, 14-17, 19, 21, 26-28, 30, 32, 35, 42, 51, 52, 58, 60-63
    3    1 H      82-153

           -------------------------------------------------
          |                Calculation Setup                |
           -------------------------------------------------

          program call               : xtb PAPU-0081/conf02.xyz --gfn 2 --alpb octanol --chrg 0 --uhf 0 --namespace PAPU-0081/conf02_octanol
          hostname                   : cpu10
          calculation namespace      : PAPU-0081/conf02_octanol
          coordinate file            : PAPU-0081/conf02.xyz
          omp threads                :                    16


           -------------------------------------------------
          |                 G F N 2 - x T B                 |
           -------------------------------------------------

        Reference                      10.1021/acs.jctc.8b01176
      * Hamiltonian:
        H0-scaling (s, p, d)           1.850000    2.230000    2.230000
        zeta-weighting                 0.500000
      * Dispersion:
        s8                             2.700000
        a1                             0.520000
        a2                             5.000000
        s9                             5.000000
      * Repulsion:
        kExp                           1.500000    1.000000
        rExp                           1.000000
      * Coulomb:
        alpha                          2.000000
        third order                    shell-resolved
        anisotropic                    true
        a3                             3.000000
        a5                             4.000000
        cn-shift                       1.200000
        cn-exp                         4.000000
        max-rad                        5.000000

      * Solvation model:               ALPB
        Solvent                        octanol
        Parameter file                 internal GFN2-xTB/ALPB
        Dielectric constant                9.8629E+00
        Reference state                gsolv [1 M gas/solution]
        Free energy shift                  2.3397E-03 Eh       1.4682E+00 kcal/mol
        Temperature                        2.9815E+02 K
        Density                            8.3000E-01 kg/L
        Solvent mass                       1.3023E+02 g/mol
        Interaction kernel             P16
        Born radius scaling (c1)           1.5898E+00
        Born radii integrator          GBOBC
        Born offset                        0.0000E+00 a0       0.0000E+00 AA
        H-bond correction              true
        Ion screening                  false
        Surface tension                    1.0000E-05 Eh       1.5569E+01 dyn/cm
        Grid points                               230 per atom

          ...................................................
          :                      SETUP                      :
          :.................................................:
          :  # basis functions                 396          :
          :  # atomic orbitals                 396          :
          :  # shells                          234          :
          :  # electrons                       438          :
          :  max. iterations                   250          :
          :  Hamiltonian                  GFN2-xTB          :
          :  restarted?                      false          :
          :  GBSA solvation                   true          :
          :  PC potential                    false          :
          :  electronic temp.          300.0000000     K    :
          :  accuracy                    1.0000000          :
          :  -> integral cutoff          0.2500000E+02      :
          :  -> integral neglect         0.1000000E-07      :
          :  -> SCF convergence          0.1000000E-05 Eh   :
          :  -> wf. convergence          0.1000000E-03 e    :
          :  Broyden damping             0.4000000          :
          :  net charge                          0          :
          :  unpaired electrons                  0          :
          ...................................................

 iter      E             dE          RMSdq      gap      omega  full diag
   1   -253.3037999 -0.253304E+03  0.448E+00    2.43       0.0  T
   2   -253.5402552 -0.236455E+00  0.247E+00    1.61       1.0  T
   3   -253.5293138  0.109415E-01  0.968E-01    1.64       1.0  T
   4   -253.5639555 -0.346417E-01  0.245E-01    1.39       1.0  T
   5   -253.5668956 -0.294010E-02  0.109E-01    1.39       1.0  T
   6   -253.5673730 -0.477404E-03  0.547E-02    1.42       1.0  T
   7   -253.5674829 -0.109936E-03  0.258E-02    1.42       1.0  T
   8   -253.5675106 -0.277045E-04  0.109E-02    1.42       1.0  T
   9   -253.5675163 -0.564967E-05  0.389E-03    1.42       2.1  T
  10   -253.5675167 -0.399691E-06  0.229E-03    1.42       3.5  T
  11   -253.5675168 -0.175601E-06  0.122E-03    1.42       6.7  T
  12   -253.5675169 -0.545872E-07  0.519E-04    1.42      15.6  T
  13   -253.5675169 -0.136066E-07  0.259E-04    1.42      31.2  T

   *** convergence criteria satisfied after 13 iterations ***

         #    Occupation            Energy/Eh            Energy/eV
      -------------------------------------------------------------
         1        2.0000           -0.7879189             -21.4404
       ...           ...                  ...                  ...
       213        2.0000           -0.4067069             -11.0671
       214        2.0000           -0.4056040             -11.0370
       215        2.0000           -0.4039802             -10.9929
       216        2.0000           -0.4023429             -10.9483
       217        2.0000           -0.3911686             -10.6442
       218        2.0000           -0.3823764             -10.4050
       219        2.0000           -0.3779199             -10.2837 (HOMO)
       220                         -0.3257065              -8.8629 (LUMO)
       221                         -0.2822106              -7.6793
       222                         -0.2487343              -6.7684
       223                         -0.2466769              -6.7124
       224                         -0.2408711              -6.5544
       ...                                ...                  ...
       396                          0.7028648              19.1259
      -------------------------------------------------------------
                  HL-Gap            0.0522134 Eh            1.4208 eV
             Fermi-level           -0.3518132 Eh           -9.5733 eV

 SCC (total)                   0 d,  0 h,  0 min,  0.289 sec
 SCC setup                      ...        0 min,  0.004 sec (  1.438%)
 Dispersion                     ...        0 min,  0.005 sec (  1.704%)
 classical contributions        ...        0 min,  0.000 sec (  0.066%)
 integral evaluation            ...        0 min,  0.013 sec (  4.518%)
 iterations                     ...        0 min,  0.221 sec ( 76.390%)
 molecular gradient             ...        0 min,  0.044 sec ( 15.239%)
 printout                       ...        0 min,  0.002 sec (  0.632%)

         :::::::::::::::::::::::::::::::::::::::::::::::::::::
         ::                     SUMMARY                     ::
         :::::::::::::::::::::::::::::::::::::::::::::::::::::
         :: total energy            -250.648843571876 Eh    ::
         :: total w/o Gsasa/hb      -250.567909798898 Eh    ::
         :: gradient norm              0.123205620329 Eh/a0 ::
         :: HOMO-LUMO gap              1.420799246240 eV    ::
         ::.................................................::
         :: SCC energy              -253.551140851050 Eh    ::
         :: -> isotropic ES            0.533883027441 Eh    ::
         :: -> anisotropic ES         -0.023422903157 Eh    ::
         :: -> anisotropic XC          0.031915579074 Eh    ::
         :: -> dispersion             -0.212858440694 Eh    ::
         :: -> Gsolv                  -0.113170333016 Eh    ::
         ::    -> Gelec               -0.032236560037 Eh    ::
         ::    -> Gsasa               -0.035460351690 Eh    ::
         ::    -> Ghb                 -0.047813090664 Eh    ::
         ::    -> Gshift               0.002339669376 Eh    ::
         :: repulsion energy           2.902297279174 Eh    ::
         :: add. restraining           0.000000000000 Eh    ::
         :: total charge               0.000000000000 e     ::
         :::::::::::::::::::::::::::::::::::::::::::::::::::::

           -------------------------------------------------
          |                Property Printout                |
           -------------------------------------------------

    * Orbital Energies and Occupations

         #    Occupation            Energy/Eh            Energy/eV
      -------------------------------------------------------------
         1        2.0000           -0.7879189             -21.4404
       ...           ...                  ...                  ...
       207        2.0000           -0.4154056             -11.3038
       208        2.0000           -0.4143391             -11.2747
       209        2.0000           -0.4134779             -11.2513
       210        2.0000           -0.4119778             -11.2105
       211        2.0000           -0.4092546             -11.1364
       212        2.0000           -0.4084306             -11.1140
       213        2.0000           -0.4067069             -11.0671
       214        2.0000           -0.4056040             -11.0370
       215        2.0000           -0.4039802             -10.9929
       216        2.0000           -0.4023429             -10.9483
       217        2.0000           -0.3911686             -10.6442
       218        2.0000           -0.3823764             -10.4050
       219        2.0000           -0.3779199             -10.2837 (HOMO)
       220                         -0.3257065              -8.8629 (LUMO)
       221                         -0.2822106              -7.6793
       222                         -0.2487343              -6.7684
       223                         -0.2466769              -6.7124
       224                         -0.2408711              -6.5544
       225                         -0.2372920              -6.4570
       226                         -0.2306585              -6.2765
       227                         -0.2304281              -6.2703
       228                         -0.2227222              -6.0606
       229                         -0.2204301              -5.9982
       230                         -0.2115104              -5.7555
       ...                                ...                  ...
       396                          0.7028648              19.1259
      -------------------------------------------------------------
                  HL-Gap            0.0522134 Eh            1.4208 eV
             Fermi-level           -0.3518132 Eh           -9.5733 eV

     #   Z          covCN         q      C6AA      α(0)
     1   6 C        2.841     0.144    24.870     8.173
     2   6 C        2.972    -0.051    29.263     8.873
     3   6 C        2.965    -0.002    28.083     8.692
     4   6 C        2.928    -0.089    30.224     9.016
     5   6 C        2.836     0.152    24.688     8.143
     6   6 C        2.921    -0.086    30.159     9.006
     7   6 C        3.741     0.101    18.985     6.217
     8   6 C        3.720     0.095    19.120     6.245
     9   6 C        3.748     0.103    18.946     6.208
    10   6 C        3.744     0.098    19.030     6.223
    11   6 C        3.739     0.095    19.080     6.233
    12   8 O        1.695    -0.341    19.729     5.997
    13   6 C        3.683     0.074    19.537     6.329
    14   8 O        1.652    -0.474    22.336     6.380
    15   8 O        1.651    -0.483    22.536     6.408
    16   8 O        1.698    -0.323    19.406     5.948
    17   8 O        1.702    -0.297    18.949     5.877
    18   6 C        3.676     0.076    19.527     6.331
    19   8 O        1.654    -0.490    22.686     6.430
    20   6 C        3.637     0.248    17.103     5.950
    21   8 O        1.696    -0.358    20.041     6.044
    22   6 C        3.744     0.111    18.821     6.189
    23   6 C        3.723     0.090    19.197     6.257
    24   6 C        3.723     0.086    19.248     6.265
    25   6 C        3.754     0.087    19.192     6.247
    26   8 O        1.654    -0.479    22.435     6.394
    27   8 O        1.699    -0.322    19.374     5.943
    28   8 O        1.653    -0.481    22.494     6.402
    29   6 C        3.745     0.068    19.513     6.301
    30   8 O        1.703    -0.282    18.674     5.834
    31   6 C        2.767     0.351    21.041     7.512
    32   8 O        0.857    -0.448    22.671     6.384
    33   6 C        2.725     0.355    20.980     7.498
    34   6 C        2.897    -0.097    30.450     9.048
    35   8 O        0.858    -0.485    23.462     6.494
    36   6 C        2.903    -0.003    28.101     8.692
    37   6 C        2.898    -0.049    29.209     8.861
    38   6 C        2.896    -0.001    28.042     8.682
    39   6 C        3.805    -0.075    21.938     6.668
    40   6 C        3.729     0.124    18.658     6.167
    41   6 C        2.894    -0.074    29.838     8.956
    42   8 O        1.652    -0.498    22.845     6.452
    43   6 C        2.899    -0.034    28.854     8.807
    44   6 C        2.898    -0.055    29.375     8.886
    45   6 C        2.896    -0.036    28.905     8.815
    46   6 C        3.806    -0.064    21.732     6.636
    47   6 C        3.802    -0.051    21.482     6.599
    48   6 C        3.801    -0.062    21.698     6.632
    49   6 C        3.800    -0.054    21.548     6.609
    50   6 C        3.751    -0.109    22.649     6.787
    51   8 O        1.656    -0.439    21.619     6.277
    52   8 O        1.657    -0.433    21.492     6.258
    53   6 C        3.652     0.234    17.240     5.963
    54   6 C        3.723     0.083    19.299     6.274
    55   6 C        3.724     0.094    19.125     6.245
    56   6 C        3.722     0.087    19.240     6.264
    57   6 C        3.744     0.105    18.926     6.206
    58   8 O        1.696    -0.359    20.058     6.047
    59   6 C        3.674     0.068    19.657     6.353
    60   8 O        1.653    -0.480    22.474     6.400
    61   8 O        1.654    -0.477    22.401     6.389
    62   8 O        1.653    -0.481    22.484     6.401
    63   8 O        1.653    -0.470    22.260     6.369
    64   6 C        2.975    -0.027    28.672     8.783
    65   6 C        2.925    -0.022    28.563     8.765
    66   6 C        2.925    -0.032    28.803     8.801
    67   6 C        2.978     0.021    27.526     8.606
    68   6 C        2.926    -0.037    28.915     8.818
    69   6 C        2.924    -0.030    28.755     8.794
    70   6 C        2.978     0.008    27.835     8.654
    71   6 C        2.926    -0.036    28.890     8.815
    72   6 C        2.924    -0.035    28.864     8.810
    73   6 C        2.976     0.009    27.801     8.649
    74   6 C        2.924    -0.035    28.882     8.813
    75   6 C        2.922    -0.035    28.861     8.810
    76   6 C        2.976     0.008    27.840     8.655
    77   6 C        2.928    -0.037    28.916     8.819
    78   6 C        2.920    -0.033    28.830     8.805
    79   6 C        2.924    -0.035    28.871     8.811
    80   6 C        2.920    -0.034    28.851     8.808
    81   6 C        2.928    -0.039    28.970     8.827
    82   1 H        0.926     0.068     2.103     2.268
    83   1 H        0.926     0.085     1.932     2.173
    84   1 H        0.924     0.042     2.428     2.437
    85   1 H        0.923     0.053     2.280     2.361
    86   1 H        0.924     0.038     2.479     2.462
    87   1 H        0.923     0.094     1.843     2.123
    88   1 H        0.923     0.053     2.286     2.364
    89   1 H        0.924     0.063     2.165     2.301
    90   1 H        0.924     0.022     2.707     2.573
    91   1 H        0.801     0.314     0.681     1.297
    92   1 H        0.802     0.329     0.639     1.256
    93   1 H        0.924     0.046     2.369     2.407
    94   1 H        0.924     0.058     2.221     2.330
    95   1 H        0.804     0.365     0.555     1.170
    96   1 H        0.923     0.005     2.967     2.694
    97   1 H        0.923     0.031     2.578     2.511
    98   1 H        0.923     0.054     2.269     2.356
    99   1 H        0.923     0.052     2.300     2.371
   100   1 H        0.923     0.087     1.904     2.158
   101   1 H        0.804     0.362     0.561     1.176
   102   1 H        0.803     0.369     0.546     1.160
   103   1 H        0.924     0.099     1.796     2.096
   104   1 H        0.924     0.086     1.919     2.166
   105   1 H        0.926     0.099     1.791     2.093
   106   1 H        0.926     0.069     2.093     2.262
   107   1 H        0.926     0.077     2.011     2.218
   108   1 H        0.926     0.076     2.021     2.223
   109   1 H        0.924     0.088     1.903     2.157
   110   1 H        0.924     0.068     2.107     2.270
   111   1 H        0.923     0.032     2.552     2.498
   112   1 H        0.926     0.049     2.336     2.390
   113   1 H        0.804     0.337     0.619     1.235
   114   1 H        0.926     0.044     2.400     2.422
   115   1 H        0.926     0.045     2.378     2.411
   116   1 H        0.926     0.030     2.587     2.515
   117   1 H        0.924     0.058     2.228     2.334
   118   1 H        0.924     0.048     2.345     2.395
   119   1 H        0.924     0.021     2.713     2.576
   120   1 H        0.924     0.016     2.788     2.611
   121   1 H        0.924     0.034     2.529     2.487
   122   1 H        0.924     0.033     2.538     2.491
   123   1 H        0.924     0.029     2.602     2.523
   124   1 H        0.924     0.021     2.722     2.580
   125   1 H        0.924     0.040     2.445     2.445
   126   1 H        0.924     0.036     2.500     2.473
   127   1 H        0.924     0.038     2.482     2.464
   128   1 H        0.803     0.345     0.600     1.217
   129   1 H        0.804     0.362     0.561     1.176
   130   1 H        0.923     0.014     2.828     2.630
   131   1 H        0.923     0.060     2.199     2.319
   132   1 H        0.923     0.033     2.549     2.497
   133   1 H        0.923     0.047     2.359     2.402
   134   1 H        0.924     0.003     3.004     2.711
   135   1 H        0.924     0.094     1.845     2.124
   136   1 H        0.924     0.056     2.250     2.346
   137   1 H        0.803     0.370     0.544     1.158
   138   1 H        0.804     0.369     0.546     1.160
   139   1 H        0.804     0.358     0.569     1.185
   140   1 H        0.802     0.310     0.693     1.307
   141   1 H        0.926     0.065     2.139     2.287
   142   1 H        0.926     0.059     2.212     2.326
   143   1 H        0.926     0.072     2.062     2.245
   144   1 H        0.926     0.067     2.121     2.278
   145   1 H        0.926     0.026     2.643     2.542
   146   1 H        0.926     0.042     2.419     2.432
   147   1 H        0.926     0.044     2.396     2.420
   148   1 H        0.926     0.045     2.380     2.413
   149   1 H        0.926     0.037     2.491     2.468
   150   1 H        0.926     0.037     2.492     2.469
   151   1 H        0.926     0.035     2.518     2.481
   152   1 H        0.926     0.036     2.500     2.473
   153   1 H        0.926     0.036     2.498     2.472

 Mol. C6AA /au·bohr⁶  :     242135.423782
 Mol. C8AA /au·bohr⁸  :    5614947.761563
 Mol. α(0) /au        :        748.856789


Wiberg/Mayer (AO) data.
largest (>0.10) Wiberg bond orders for each atom

 ---------------------------------------------------------------------------
     #   Z sym  total        # sym  WBO       # sym  WBO       # sym  WBO
 ---------------------------------------------------------------------------
     1   6 C    3.943 --     6 C    1.395     2 C    1.331    51 O    1.070
     2   6 C    3.969 --     3 C    1.390     1 C    1.331     7 C    0.988
     3   6 C    3.986 --     4 C    1.423     2 C    1.390    13 C    1.000
     4   6 C    3.981 --     3 C    1.423     5 C    1.362    82 H    0.961
     5   6 C    3.945 --     6 C    1.378     4 C    1.362    52 O    1.078
     6   6 C    3.980 --     1 C    1.395     5 C    1.378    83 H    0.962
     7   6 C    3.938 --     2 C    0.988    84 H    0.951     8 C    0.951
                            12 O    0.951
     8   6 C    3.951 --    15 O    0.988     9 C    0.965    85 H    0.955
                             7 C    0.951
     9   6 C    3.929 --    10 C    0.970     8 C    0.965    86 H    0.953
                            17 O    0.937
    10   6 C    3.934 --     9 C    0.970    16 O    0.963    11 C    0.960
                            87 H    0.950
    11   6 C    3.947 --    18 C    0.988    12 O    0.966    10 C    0.960
                            88 H    0.948
    12   8 O    2.078 --    11 C    0.966     7 C    0.951
    13   6 C    3.959 --     3 C    1.000    14 O    0.990    89 H    0.968
                            90 H    0.957
    14   8 O    1.942 --    13 C    0.990    91 H    0.853
    15   8 O    1.949 --     8 C    0.988    92 H    0.830
    16   8 O    2.093 --    20 C    0.982    10 C    0.963
    17   8 O    2.269 --    33 C    1.086     9 C    0.937    35 O    0.141
    18   6 C    3.960 --    19 O    1.006    11 C    0.988    94 H    0.966
                            93 H    0.966
    19   8 O    1.912 --    18 C    1.006    95 H    0.853
    20   6 C    3.928 --    16 O    0.982    21 O    0.958    25 C    0.955
                            96 H    0.942
    21   8 O    2.057 --    20 C    0.958    22 C    0.948
    22   6 C    3.938 --    29 C    0.982    23 C    0.970    97 H    0.953
                            21 O    0.948
    23   6 C    3.967 --    28 O    1.008    22 C    0.970    24 C    0.967
                            98 H    0.956
    24   6 C    3.962 --    26 O    1.001    23 C    0.967    25 C    0.964
                            99 H    0.953
    25   6 C    3.939 --    27 O    0.965    24 C    0.964    20 C    0.955
                           100 H    0.952
    26   8 O    1.933 --    24 C    1.001   101 H    0.851
    27   8 O    2.089 --    53 C    0.981    25 C    0.965
    28   8 O    1.922 --    23 C    1.008   102 H    0.842
    29   6 C    3.928 --    22 C    0.982    30 O    0.964   103 H    0.962
                           104 H    0.958
    30   8 O    2.261 --    31 C    1.073    29 C    0.964    32 O    0.148
    31   6 C    3.897 --    32 O    1.712    30 O    1.073    64 C    1.022
    32   8 O    2.003 --    31 C    1.712    30 O    0.148
    33   6 C    3.895 --    35 O    1.600    34 C    1.090    17 O    1.086
    34   6 C    3.962 --    36 C    1.691    33 C    1.090   105 H    0.954
                            38 C    0.110
    35   8 O    1.967 --    33 C    1.600    17 O    0.141
    36   6 C    3.974 --    34 C    1.691    37 C    1.174   106 H    0.956
    37   6 C    3.985 --    38 C    1.755    36 C    1.174   107 H    0.957
    38   6 C    3.952 --    37 C    1.755    39 C    1.048   108 H    0.960
                            34 C    0.110
    39   6 C    3.983 --    38 C    1.048   110 H    0.969   109 H    0.953
                            40 C    0.942
    40   6 C    3.945 --    41 C    1.005    42 O    0.978   111 H    0.959
                            39 C    0.942
    41   6 C    3.978 --    43 C    1.837    40 C    1.005   112 H    0.965
                            45 C    0.121
    42   8 O    1.920 --    40 C    0.978   113 H    0.871
    43   6 C    3.990 --    41 C    1.837    44 C    1.119   114 H    0.960
    44   6 C    3.989 --    45 C    1.832    43 C    1.119   115 H    0.962
    45   6 C    3.984 --    44 C    1.832    46 C    1.033   116 H    0.965
                            41 C    0.121
    46   6 C    3.996 --    45 C    1.033    47 C    1.004   118 H    0.963
                           117 H    0.949
    47   6 C    3.995 --    48 C    1.008    46 C    1.004   119 H    0.975
                           120 H    0.975
    48   6 C    3.996 --    47 C    1.008    49 C    1.007   121 H    0.977
                           122 H    0.972
    49   6 C    3.995 --    50 C    1.021    48 C    1.007   124 H    0.973
                           123 H    0.971
    50   6 C    3.996 --    49 C    1.021   127 H    0.987   126 H    0.986
                           125 H    0.986
    51   8 O    2.079 --     1 C    1.070   128 H    0.836
    52   8 O    2.087 --     5 C    1.078   129 H    0.850
    53   6 C    3.920 --    27 O    0.981    54 C    0.956    58 O    0.953
                           130 H    0.943
    54   6 C    3.959 --    62 O    1.000    55 C    0.970    53 C    0.956
                           131 H    0.955
    55   6 C    3.967 --    61 O    1.004    54 C    0.970    56 C    0.967
                           132 H    0.956
    56   6 C    3.968 --    60 O    1.010    55 C    0.967    57 C    0.966
                           133 H    0.956
    57   6 C    3.939 --    59 C    0.980    56 C    0.966    58 O    0.953
                           134 H    0.944
    58   8 O    2.060 --    53 C    0.953    57 C    0.953
    59   6 C    3.948 --    63 O    1.005    57 C    0.980   136 H    0.964
                           135 H    0.964
    60   8 O    1.923 --    56 C    1.010   137 H    0.840
    61   8 O    1.933 --    55 C    1.004   138 H    0.847
    62   8 O    1.926 --    54 C    1.000   139 H    0.852
    63   8 O    1.944 --    59 C    1.005   140 H    0.859
    64   6 C    3.979 --    69 C    1.375    65 C    1.368    31 C    1.022
    65   6 C    3.986 --    66 C    1.467    64 C    1.368   141 H    0.962
                            68 C    0.100
    66   6 C    3.987 --    65 C    1.467    67 C    1.381   142 H    0.967
                            69 C    0.101
    67   6 C    3.984 --    68 C    1.382    66 C    1.381    70 C    1.032
    68   6 C    3.986 --    69 C    1.465    67 C    1.382   143 H    0.959
                            65 C    0.100
    69   6 C    3.986 --    68 C    1.465    64 C    1.375   144 H    0.961
                            66 C    0.101
    70   6 C    3.982 --    75 C    1.389    71 C    1.382    67 C    1.032
                            73 C    0.102
    71   6 C    3.989 --    72 C    1.463    70 C    1.382   145 H    0.965
                            74 C    0.103
    72   6 C    3.990 --    71 C    1.463    73 C    1.381   146 H    0.965
                            75 C    0.103
    73   6 C    3.984 --    74 C    1.382    72 C    1.381    76 C    1.045
                            70 C    0.102
    74   6 C    3.990 --    75 C    1.463    73 C    1.382   147 H    0.967
                            71 C    0.103
    75   6 C    3.988 --    74 C    1.463    70 C    1.389   148 H    0.968
                            72 C    0.103
    76   6 C    3.989 --    81 C    1.389    77 C    1.388    73 C    1.045
                            79 C    0.106
    77   6 C    3.990 --    78 C    1.453    76 C    1.388   149 H    0.968
                            80 C    0.108
    78   6 C    3.992 --    77 C    1.453    79 C    1.435   150 H    0.970
                            81 C    0.108
    79   6 C    3.986 --    78 C    1.435    80 C    1.434   151 H    0.971
                            76 C    0.106
    80   6 C    3.992 --    81 C    1.453    79 C    1.434   152 H    0.970
                            77 C    0.108
    81   6 C    3.990 --    80 C    1.453    76 C    1.389   153 H    0.968
                            78 C    0.108
    82   1 H    0.995 --     4 C    0.961
    83   1 H    0.992 --     6 C    0.962
    84   1 H    0.998 --     7 C    0.951
    85   1 H    0.997 --     8 C    0.955
    86   1 H    0.998 --     9 C    0.953
    87   1 H    0.991 --    10 C    0.950
    88   1 H    0.997 --    11 C    0.948
    89   1 H    0.996 --    13 C    0.968
    90   1 H    0.999 --    13 C    0.957
    91   1 H    0.901 --    14 O    0.853
    92   1 H    0.891 --    15 O    0.830
    93   1 H    0.997 --    18 C    0.966
    94   1 H    0.996 --    18 C    0.966
    95   1 H    0.867 --    19 O    0.853
    96   1 H    1.000 --    20 C    0.942
    97   1 H    0.999 --    22 C    0.953
    98   1 H    0.997 --    23 C    0.956
    99   1 H    0.997 --    24 C    0.953
   100   1 H    0.992 --    25 C    0.952
   101   1 H    0.868 --    26 O    0.851
   102   1 H    0.864 --    28 O    0.842
   103   1 H    0.990 --    29 C    0.962
   104   1 H    0.992 --    29 C    0.958
   105   1 H    0.990 --    34 C    0.954
   106   1 H    0.995 --    36 C    0.956
   107   1 H    0.994 --    37 C    0.957
   108   1 H    0.994 --    38 C    0.960
   109   1 H    0.987 --    39 C    0.953
   110   1 H    0.995 --    39 C    0.969
   111   1 H    0.996 --    40 C    0.959
   112   1 H    0.998 --    41 C    0.965
   113   1 H    0.886 --    42 O    0.871
   114   1 H    0.998 --    43 C    0.960
   115   1 H    0.998 --    44 C    0.962
   116   1 H    0.999 --    45 C    0.965
   117   1 H    0.989 --    46 C    0.949
   118   1 H    0.997 --    46 C    0.963
   119   1 H    0.999 --    47 C    0.975
   120   1 H    1.000 --    47 C    0.975
   121   1 H    0.999 --    48 C    0.977
   122   1 H    0.999 --    48 C    0.972
   123   1 H    0.999 --    49 C    0.971
   124   1 H    1.000 --    49 C    0.973
   125   1 H    0.998 --    50 C    0.986
   126   1 H    0.999 --    50 C    0.986
   127   1 H    0.998 --    50 C    0.987
   128   1 H    0.881 --    51 O    0.836
   129   1 H    0.868 --    52 O    0.850
   130   1 H    1.000 --    53 C    0.943
   131   1 H    0.996 --    54 C    0.955
   132   1 H    0.999 --    55 C    0.956
   133   1 H    0.997 --    56 C    0.956
   134   1 H    1.000 --    57 C    0.944
   135   1 H    0.991 --    59 C    0.964
   136   1 H    0.996 --    59 C    0.964
   137   1 H    0.863 --    60 O    0.840
   138   1 H    0.863 --    61 O    0.847
   139   1 H    0.871 --    62 O    0.852
   140   1 H    0.904 --    63 O    0.859
   141   1 H    0.995 --    65 C    0.962
   142   1 H    0.996 --    66 C    0.967
   143   1 H    0.994 --    68 C    0.959
   144   1 H    0.995 --    69 C    0.961
   145   1 H    0.999 --    71 C    0.965
   146   1 H    0.997 --    72 C    0.965
   147   1 H    0.997 --    74 C    0.967
   148   1 H    0.997 --    75 C    0.968
   149   1 H    0.999 --    77 C    0.968
   150   1 H    0.998 --    78 C    0.970
   151   1 H    0.998 --    79 C    0.971
   152   1 H    0.998 --    80 C    0.970
   153   1 H    0.999 --    81 C    0.968
 ---------------------------------------------------------------------------

Topologies differ in total number of bonds
Writing topology from bond orders to xtbtopo.mol

molecular dipole:
                 x           y           z       tot (Debye)
 q only:       -1.319       3.337       2.042
   full:       -0.730       3.423       2.152      10.444
molecular quadrupole (traceless):
                xx          xy          yy          xz          yz          zz
 q only:       18.328      10.076      39.254      34.136     -14.951     -57.582
  q+dip:       24.363       1.727      44.848      38.027     -12.735     -69.211
   full:       22.095       3.079      42.063      40.045     -12.559     -64.159


           -------------------------------------------------
          | TOTAL ENERGY             -250.648843571876 Eh   |
          | GRADIENT NORM               0.123205620329 Eh/α |
          | HOMO-LUMO GAP               1.420799246240 eV   |
           -------------------------------------------------

------------------------------------------------------------------------
 * finished run on 2026/06/19 at 18:52:42.304     
------------------------------------------------------------------------
 total:
 * wall-time:     0 d,  0 h,  0 min,  0.340 sec
 *  cpu-time:     0 d,  0 h,  0 min,  5.236 sec
 * ratio c/w:    15.402 speedup
 SCF:
 * wall-time:     0 d,  0 h,  0 min,  0.290 sec
 *  cpu-time:     0 d,  0 h,  0 min,  4.584 sec
 * ratio c/w:    15.794 speedup

normal termination of xtb
