      -----------------------------------------------------------      
     |                   =====================                   |     
     |                           x T B                           |     
     |                   =====================                   |     
     |                         S. Grimme                         |     
     |          Mulliken Center for Theoretical Chemistry        |     
     |                    University of Bonn                     |     
      -----------------------------------------------------------      

   * xtb version 6.7.1 (edcfbbe) compiled by 'albert@albert-system' on 2024-07-22

   xtb is free software: you can redistribute it and/or modify it under
   the terms of the GNU Lesser General Public License as published by
   the Free Software Foundation, either version 3 of the License, or
   (at your option) any later version.
   
   xtb is distributed in the hope that it will be useful,
   but WITHOUT ANY WARRANTY; without even the implied warranty of
   MERCHANTABILITY or FITNESS FOR A PARTICULAR PURPOSE.  See the
   GNU Lesser General Public License for more details.
   
   Cite this work as:
   * C. Bannwarth, E. Caldeweyher, S. Ehlert, A. Hansen, P. Pracht,
     J. Seibert, S. Spicher, S. Grimme, WIREs Comput. Mol. Sci., 2020, 11,
     e01493. DOI: 10.1002/wcms.1493
   
   for GFN2-xTB:
   * C. Bannwarth, S. Ehlert and S. Grimme., J. Chem. Theory Comput., 2019,
     15, 1652-1671. DOI: 10.1021/acs.jctc.8b01176
   for GFN1-xTB:
   * S. Grimme, C. Bannwarth, P. Shushkov, J. Chem. Theory Comput., 2017,
     13, 1989-2009. DOI: 10.1021/acs.jctc.7b00118
   for GFN0-xTB:
   * P. Pracht, E. Caldeweyher, S. Ehlert, S. Grimme, ChemRxiv, 2019, preprint.
     DOI: 10.26434/chemrxiv.8326202.v1
   for GFN-FF:
   * S. Spicher and S. Grimme, Angew. Chem. Int. Ed., 2020, 59, 15665-15673.
     DOI: 10.1002/anie.202004239
   
   for ALPB and GBSA implicit solvation:
   * S. Ehlert, M. Stahn, S. Spicher, S. Grimme, J. Chem. Theory Comput.,
     2021, 17, 4250-4261. DOI: 10.1021/acs.jctc.1c00471
   
   for ddCOSMO and CPCM-X implicit solvation:
   * M. Stahn, S. Ehlert, S. Grimme, J. Phys. Chem. A,
     2023, XX, XXXX-XXXX. DOI: 10.1021/acs.jpca.3c04382
   
   for DFT-D4:
   * E. Caldeweyher, C. Bannwarth and S. Grimme, J. Chem. Phys., 2017,
     147, 034112. DOI: 10.1063/1.4993215
   * E. Caldeweyher, S. Ehlert, A. Hansen, H. Neugebauer, S. Spicher,
     C. Bannwarth and S. Grimme, J. Chem. Phys., 2019, 150, 154122.
     DOI: 10.1063/1.5090222
   * E. Caldeweyher, J.-M. Mewes, S. Ehlert and S. Grimme, Phys. Chem. Chem. Phys.
     2020, 22, 8499-8512. DOI: 10.1039/D0CP00502A
   
   for sTDA-xTB:
   * S. Grimme and C. Bannwarth, J. Chem. Phys., 2016, 145, 054103.
     DOI: 10.1063/1.4959605
   
   in the mass-spec context:
   * V. Asgeirsson, C. Bauer and S. Grimme, Chem. Sci., 2017, 8, 4879.
     DOI: 10.1039/c7sc00601b
   * J. Koopman and S. Grimme, ACS Omega 2019, 4, 12, 15120-15133.
     DOI: 10.1021/acsomega.9b02011
   
   for metadynamics refer to:
   * S. Grimme, J. Chem. Theory Comput., 2019, 155, 2847-2862
     DOI: 10.1021/acs.jctc.9b00143
   
   for SPH calculations refer to:
   * S. Spicher and S. Grimme, J. Chem. Theory Comput., 2021, 17, 1701-1714
     DOI: 10.1021/acs.jctc.0c01306
   
   for ONIOM refer to:
   * C. Plett, A. Katbashev, S. Ehlert, S. Grimme, M. Bursch,
     Phys. Chem. Chem. Phys., 2023, 25, 17860-17868. DOI: 10.1039/D3CP02178E
   
   for DIPRO refer to:
   * J. Kohn, N. Gildemeister, S. Grimme, D. Fazzi, A. Hansen,
     J. Chem. Phys., 2023, just accepted.
   
   for PTB refer to:
   * S. Grimme, M. Mueller, A. Hansen, J. Chem. Phys., 2023, 158, 124111.
     DOI: 10.1063/5.0137838
   
   with help from (in alphabetical order)
   P. Atkinson, C. Bannwarth, F. Bohle, G. Brandenburg, E. Caldeweyher
   M. Checinski, S. Dohm, S. Ehlert, S. Ehrlich, I. Gerasimov, C. Hölzer
   A. Katbashev, J. Kohn, J. Koopman, C. Lavigne, S. Lehtola, F. März, M. Müller,
   F. Musil, H. Neugebauer, J. Pisarek, C. Plett, P. Pracht, F. Pultar,
   J. Seibert, P. Shushkov, S. Spicher, M. Stahn, M. Steiner, T. Strunk,
   J. Stückrath, T. Rose, and J. Unsleber
   
 * started run on 2026/06/19 at 18:53:01.745     
   ID    Z sym.   atoms
    1    6 C      1-11, 13, 18, 20, 22-25, 29, 31, 33, 34, 36-41, 43-50,
                  53-57, 59, 64-75, 77-83
    2    8 O      12, 14-17, 19, 21, 26-28, 30, 32, 35, 42, 51, 52, 58,
                  60-63, 76
    3    1 H      84-157

           -------------------------------------------------
          |                Calculation Setup                |
           -------------------------------------------------

          program call               : xtb PAPU-0088/conf05.xyz --gfn 2 --alpb water --chrg 0 --uhf 0 --namespace PAPU-0088/conf05_water
          hostname                   : cpu10
          calculation namespace      : PAPU-0088/conf05_water
          coordinate file            : PAPU-0088/conf05.xyz
          omp threads                :                    16


           -------------------------------------------------
          |                 G F N 2 - x T B                 |
           -------------------------------------------------

        Reference                      10.1021/acs.jctc.8b01176
      * Hamiltonian:
        H0-scaling (s, p, d)           1.850000    2.230000    2.230000
        zeta-weighting                 0.500000
      * Dispersion:
        s8                             2.700000
        a1                             0.520000
        a2                             5.000000
        s9                             5.000000
      * Repulsion:
        kExp                           1.500000    1.000000
        rExp                           1.000000
      * Coulomb:
        alpha                          2.000000
        third order                    shell-resolved
        anisotropic                    true
        a3                             3.000000
        a5                             4.000000
        cn-shift                       1.200000
        cn-exp                         4.000000
        max-rad                        5.000000

      * Solvation model:               ALPB
        Solvent                        water
        Parameter file                 internal GFN2-xTB/ALPB
        Dielectric constant                8.0200E+01
        Reference state                gsolv [1 M gas/solution]
        Free energy shift                  1.0808E-03 Eh       6.7819E-01 kcal/mol
        Temperature                        2.9815E+02 K
        Density                            1.0000E+00 kg/L
        Solvent mass                       1.8000E+01 g/mol
        Interaction kernel             P16
        Born radius scaling (c1)           1.4744E+00
        Born radii integrator          GBOBC
        Born offset                        0.0000E+00 a0       0.0000E+00 AA
        H-bond correction              true
        Ion screening                  false
        Surface tension                    1.0000E-05 Eh       1.5569E+01 dyn/cm
        Grid points                               230 per atom

          ...................................................
          :                      SETUP                      :
          :.................................................:
          :  # basis functions                 406          :
          :  # atomic orbitals                 406          :
          :  # shells                          240          :
          :  # electrons                       450          :
          :  max. iterations                   250          :
          :  Hamiltonian                  GFN2-xTB          :
          :  restarted?                      false          :
          :  GBSA solvation                   true          :
          :  PC potential                    false          :
          :  electronic temp.          300.0000000     K    :
          :  accuracy                    1.0000000          :
          :  -> integral cutoff          0.2500000E+02      :
          :  -> integral neglect         0.1000000E-07      :
          :  -> SCF convergence          0.1000000E-05 Eh   :
          :  -> wf. convergence          0.1000000E-03 e    :
          :  Broyden damping             0.4000000          :
          :  net charge                          0          :
          :  unpaired electrons                  0          :
          ...................................................

 iter      E             dE          RMSdq      gap      omega  full diag
   1   -260.5453806 -0.260545E+03  0.460E+00    2.33       0.0  T
   2   -260.7940787 -0.248698E+00  0.254E+00    1.89       1.0  T
   3   -260.7737009  0.203778E-01  0.101E+00    1.87       1.0  T
   4   -260.8173081 -0.436072E-01  0.323E-01    1.60       1.0  T
   5   -260.8240060 -0.669790E-02  0.139E-01    1.61       1.0  T
   6   -260.8249435 -0.937478E-03  0.727E-02    1.61       1.0  T
   7   -260.8251457 -0.202214E-03  0.353E-02    1.62       1.0  T
   8   -260.8252016 -0.559186E-04  0.159E-02    1.62       1.0  T
   9   -260.8252120 -0.103810E-04  0.827E-03    1.62       1.0  T
  10   -260.8252145 -0.248151E-05  0.506E-03    1.62       1.6  T
  11   -260.8252159 -0.143423E-05  0.246E-03    1.61       3.2  T
  12   -260.8252161 -0.238251E-06  0.973E-04    1.61       8.2  T
  13   -260.8252162 -0.566704E-07  0.459E-04    1.61      17.4  T

   *** convergence criteria satisfied after 13 iterations ***

         #    Occupation            Energy/Eh            Energy/eV
      -------------------------------------------------------------
         1        2.0000           -0.7756650             -21.1069
       ...           ...                  ...                  ...
       219        2.0000           -0.4037049             -10.9854
       220        2.0000           -0.4028398             -10.9618
       221        2.0000           -0.3983487             -10.8396
       222        2.0000           -0.3968252             -10.7982
       223        2.0000           -0.3830923             -10.4245
       224        2.0000           -0.3764022             -10.2424
       225        2.0000           -0.3738556             -10.1731 (HOMO)
       226                         -0.3145227              -8.5586 (LUMO)
       227                         -0.2874819              -7.8228
       228                         -0.2408371              -6.5535
       229                         -0.2325067              -6.3268
       230                         -0.2313609              -6.2957
       ...                                ...                  ...
       406                          0.6911493              18.8071
      -------------------------------------------------------------
                  HL-Gap            0.0593330 Eh            1.6145 eV
             Fermi-level           -0.3441892 Eh           -9.3659 eV

 SCC (total)                   0 d,  0 h,  0 min,  0.291 sec
 SCC setup                      ...        0 min,  0.004 sec (  1.359%)
 Dispersion                     ...        0 min,  0.005 sec (  1.743%)
 classical contributions        ...        0 min,  0.000 sec (  0.063%)
 integral evaluation            ...        0 min,  0.013 sec (  4.536%)
 iterations                     ...        0 min,  0.222 sec ( 76.181%)
 molecular gradient             ...        0 min,  0.044 sec ( 15.264%)
 printout                       ...        0 min,  0.002 sec (  0.841%)

         :::::::::::::::::::::::::::::::::::::::::::::::::::::
         ::                     SUMMARY                     ::
         :::::::::::::::::::::::::::::::::::::::::::::::::::::
         :: total energy            -257.851421601922 Eh    ::
         :: total w/o Gsasa/hb      -257.803925449280 Eh    ::
         :: gradient norm              0.127291037575 Eh/a0 ::
         :: HOMO-LUMO gap              1.614532224493 eV    ::
         ::.................................................::
         :: SCC energy              -260.806428557804 Eh    ::
         :: -> isotropic ES            0.586403353633 Eh    ::
         :: -> anisotropic ES         -0.027263951873 Eh    ::
         :: -> anisotropic XC          0.029907367326 Eh    ::
         :: -> dispersion             -0.226372892557 Eh    ::
         :: -> Gsolv                  -0.114040193539 Eh    ::
         ::    -> Gelec               -0.066544040897 Eh    ::
         ::    -> Gsasa                0.007943318252 Eh    ::
         ::    -> Ghb                 -0.056520230592 Eh    ::
         ::    -> Gshift               0.001080759698 Eh    ::
         :: repulsion energy           2.955006955882 Eh    ::
         :: add. restraining           0.000000000000 Eh    ::
         :: total charge              -0.000000000000 e     ::
         :::::::::::::::::::::::::::::::::::::::::::::::::::::

           -------------------------------------------------
          |                Property Printout                |
           -------------------------------------------------

    * Orbital Energies and Occupations

         #    Occupation            Energy/Eh            Energy/eV
      -------------------------------------------------------------
         1        2.0000           -0.7756650             -21.1069
       ...           ...                  ...                  ...
       213        2.0000           -0.4142431             -11.2721
       214        2.0000           -0.4116717             -11.2022
       215        2.0000           -0.4113566             -11.1936
       216        2.0000           -0.4085419             -11.1170
       217        2.0000           -0.4072554             -11.0820
       218        2.0000           -0.4055381             -11.0353
       219        2.0000           -0.4037049             -10.9854
       220        2.0000           -0.4028398             -10.9618
       221        2.0000           -0.3983487             -10.8396
       222        2.0000           -0.3968252             -10.7982
       223        2.0000           -0.3830923             -10.4245
       224        2.0000           -0.3764022             -10.2424
       225        2.0000           -0.3738556             -10.1731 (HOMO)
       226                         -0.3145227              -8.5586 (LUMO)
       227                         -0.2874819              -7.8228
       228                         -0.2408371              -6.5535
       229                         -0.2325067              -6.3268
       230                         -0.2313609              -6.2957
       231                         -0.2311178              -6.2890
       232                         -0.2287492              -6.2246
       233                         -0.2244650              -6.1080
       234                         -0.2239922              -6.0951
       235                         -0.2216369              -6.0310
       236                         -0.2212588              -6.0208
       ...                                ...                  ...
       406                          0.6911493              18.8071
      -------------------------------------------------------------
                  HL-Gap            0.0593330 Eh            1.6145 eV
             Fermi-level           -0.3441892 Eh           -9.3659 eV

     #   Z          covCN         q      C6AA      α(0)
     1   6 C        2.841     0.140    24.951     8.186
     2   6 C        2.973    -0.029    28.717     8.790
     3   6 C        2.965     0.010    27.796     8.648
     4   6 C        2.930    -0.068    29.704     8.938
     5   6 C        2.839     0.148    24.777     8.157
     6   6 C        2.920    -0.111    30.801     9.101
     7   6 C        3.745     0.105    18.914     6.204
     8   6 C        3.720     0.095    19.120     6.245
     9   6 C        3.764     0.112    18.794     6.179
    10   6 C        3.744     0.095    19.074     6.230
    11   6 C        3.742     0.090    19.168     6.246
    12   8 O        1.695    -0.350    19.883     6.020
    13   6 C        3.682     0.078    19.482     6.321
    14   8 O        1.653    -0.511    23.138     6.493
    15   8 O        1.651    -0.471    22.283     6.372
    16   8 O        1.698    -0.330    19.529     5.966
    17   8 O        1.702    -0.295    18.902     5.870
    18   6 C        3.675     0.077    19.514     6.330
    19   8 O        1.654    -0.492    22.710     6.433
    20   6 C        3.645     0.253    17.004     5.927
    21   8 O        1.697    -0.358    20.046     6.045
    22   6 C        3.753     0.116    18.733     6.172
    23   6 C        3.721     0.095    19.110     6.243
    24   6 C        3.721     0.088    19.227     6.262
    25   6 C        3.750     0.086    19.214     6.252
    26   8 O        1.654    -0.490    22.686     6.430
    27   8 O        1.699    -0.323    19.392     5.945
    28   8 O        1.653    -0.493    22.751     6.439
    29   6 C        3.735     0.072    19.453     6.294
    30   8 O        1.703    -0.276    18.585     5.821
    31   6 C        2.757     0.347    21.109     7.524
    32   8 O        0.857    -0.481    23.367     6.481
    33   6 C        2.738     0.356    20.960     7.496
    34   6 C        2.897    -0.087    30.190     9.009
    35   8 O        0.858    -0.498    23.747     6.534
    36   6 C        2.904     0.005    27.919     8.664
    37   6 C        2.899    -0.039    28.972     8.825
    38   6 C        2.895    -0.011    28.295     8.721
    39   6 C        3.806    -0.081    22.034     6.682
    40   6 C        3.727     0.119    18.725     6.178
    41   6 C        2.894    -0.066    29.632     8.925
    42   8 O        1.652    -0.506    23.026     6.478
    43   6 C        2.897    -0.040    28.990     8.828
    44   6 C        2.898    -0.051    29.254     8.868
    45   6 C        2.895    -0.035    28.859     8.808
    46   6 C        3.805    -0.057    21.596     6.616
    47   6 C        3.802    -0.050    21.462     6.596
    48   6 C        3.800    -0.062    21.689     6.631
    49   6 C        3.799    -0.048    21.439     6.593
    50   6 C        3.751    -0.108    22.625     6.783
    51   8 O        1.656    -0.451    21.863     6.312
    52   8 O        1.657    -0.441    21.670     6.284
    53   6 C        3.647     0.240    17.175     5.955
    54   6 C        3.722     0.089    19.215     6.260
    55   6 C        3.724     0.098    19.060     6.234
    56   6 C        3.721     0.094    19.140     6.248
    57   6 C        3.740     0.105    18.932     6.208
    58   8 O        1.696    -0.373    20.311     6.085
    59   6 C        3.674     0.084    19.408     6.313
    60   8 O        1.653    -0.490    22.673     6.428
    61   8 O        1.654    -0.486    22.602     6.418
    62   8 O        1.654    -0.492    22.720     6.435
    63   8 O        1.654    -0.497    22.824     6.449
    64   6 C        2.974    -0.028    28.685     8.785
    65   6 C        2.926    -0.024    28.611     8.772
    66   6 C        2.927    -0.025    28.636     8.776
    67   6 C        2.976     0.026    27.414     8.589
    68   6 C        2.925    -0.034    28.849     8.808
    69   6 C        2.925    -0.015    28.380     8.736
    70   6 C        2.976     0.002    27.986     8.678
    71   6 C        2.924    -0.030    28.755     8.794
    72   6 C        2.919    -0.060    29.494     8.906
    73   6 C        2.860     0.140    24.936     8.185
    74   6 C        2.920    -0.054    29.347     8.884
    75   6 C        2.923    -0.034    28.846     8.808
    76   8 O        1.701    -0.306    19.091     5.899
    77   6 C        3.701     0.070    19.567     6.326
    78   6 C        2.970     0.001    28.010     8.681
    79   6 C        2.929    -0.042    29.043     8.838
    80   6 C        2.922    -0.031    28.771     8.796
    81   6 C        2.924    -0.035    28.873     8.812
    82   6 C        2.922    -0.030    28.752     8.793
    83   6 C        2.930    -0.030    28.761     8.795
    84   1 H        0.926     0.066     2.134     2.284
    85   1 H        0.926     0.072     2.063     2.246
    86   1 H        0.924     0.042     2.426     2.436
    87   1 H        0.924     0.068     2.109     2.271
    88   1 H        0.924     0.025     2.663     2.552
    89   1 H        0.923     0.083     1.952     2.185
    90   1 H        0.924     0.050     2.323     2.384
    91   1 H        0.924     0.040     2.454     2.450
    92   1 H        0.924     0.033     2.551     2.498
    93   1 H        0.804     0.363     0.558     1.174
    94   1 H        0.802     0.311     0.690     1.305
    95   1 H        0.924     0.047     2.358     2.401
    96   1 H        0.924     0.063     2.163     2.300
    97   1 H        0.803     0.365     0.555     1.171
    98   1 H        0.924    -0.008     3.193     2.795
    99   1 H        0.923     0.022     2.711     2.575
   100   1 H        0.923     0.049     2.330     2.387
   101   1 H        0.923     0.060     2.199     2.319
   102   1 H        0.924     0.096     1.820     2.110
   103   1 H        0.804     0.376     0.532     1.146
   104   1 H        0.803     0.381     0.522     1.135
   105   1 H        0.924     0.104     1.753     2.071
   106   1 H        0.924     0.080     1.980     2.200
   107   1 H        0.926     0.086     1.917     2.165
   108   1 H        0.926     0.065     2.136     2.285
   109   1 H        0.926     0.075     2.029     2.228
   110   1 H        0.926     0.068     2.103     2.268
   111   1 H        0.924     0.066     2.131     2.283
   112   1 H        0.924     0.081     1.970     2.195
   113   1 H        0.923     0.054     2.267     2.355
   114   1 H        0.926     0.056     2.242     2.342
   115   1 H        0.804     0.352     0.583     1.200
   116   1 H        0.926     0.027     2.623     2.533
   117   1 H        0.926     0.046     2.376     2.410
   118   1 H        0.926     0.013     2.845     2.638
   119   1 H        0.924     0.040     2.455     2.451
   120   1 H        0.924     0.034     2.525     2.485
   121   1 H        0.924     0.024     2.678     2.559
   122   1 H        0.924     0.025     2.654     2.548
   123   1 H        0.924     0.038     2.475     2.460
   124   1 H        0.924     0.031     2.577     2.511
   125   1 H        0.924     0.024     2.667     2.554
   126   1 H        0.924     0.020     2.731     2.584
   127   1 H        0.924     0.043     2.408     2.427
   128   1 H        0.924     0.033     2.549     2.497
   129   1 H        0.924     0.039     2.457     2.451
   130   1 H        0.804     0.377     0.528     1.142
   131   1 H        0.804     0.377     0.529     1.143
   132   1 H        0.923     0.000     3.051     2.732
   133   1 H        0.923     0.063     2.162     2.299
   134   1 H        0.923     0.031     2.566     2.505
   135   1 H        0.923     0.052     2.292     2.368
   136   1 H        0.924     0.011     2.873     2.651
   137   1 H        0.924     0.048     2.345     2.395
   138   1 H        0.924     0.050     2.316     2.380
   139   1 H        0.803     0.385     0.513     1.125
   140   1 H        0.804     0.381     0.520     1.133
   141   1 H        0.804     0.371     0.542     1.156
   142   1 H        0.803     0.367     0.551     1.166
   143   1 H        0.926     0.065     2.144     2.290
   144   1 H        0.926     0.065     2.146     2.291
   145   1 H        0.926     0.059     2.214     2.327
   146   1 H        0.926     0.048     2.348     2.396
   147   1 H        0.926     0.042     2.419     2.432
   148   1 H        0.926     0.047     2.358     2.401
   149   1 H        0.926     0.059     2.216     2.328
   150   1 H        0.926     0.056     2.251     2.346
   151   1 H        0.924     0.045     2.384     2.415
   152   1 H        0.924     0.072     2.069     2.250
   153   1 H        0.926     0.035     2.510     2.477
   154   1 H        0.926     0.044     2.397     2.421
   155   1 H        0.926     0.040     2.450     2.448
   156   1 H        0.926     0.037     2.485     2.465
   157   1 H        0.926     0.038     2.473     2.459

 Mol. C6AA /au·bohr⁶  :     253959.083136
 Mol. C8AA /au·bohr⁸  :    5871922.826403
 Mol. α(0) /au        :        765.849124


Wiberg/Mayer (AO) data.
largest (>0.10) Wiberg bond orders for each atom

 ---------------------------------------------------------------------------
     #   Z sym  total        # sym  WBO       # sym  WBO       # sym  WBO
 ---------------------------------------------------------------------------
     1   6 C    3.941 --     6 C    1.390     2 C    1.337    51 O    1.066
     2   6 C    3.975 --     3 C    1.393     1 C    1.337     7 C    0.992
     3   6 C    3.988 --     4 C    1.431     2 C    1.393    13 C    1.002
     4   6 C    3.985 --     3 C    1.431     5 C    1.358    84 H    0.963
     5   6 C    3.946 --     6 C    1.377     4 C    1.358    52 O    1.081
     6   6 C    3.974 --     1 C    1.390     5 C    1.377    85 H    0.959
     7   6 C    3.937 --     2 C    0.992    86 H    0.952     8 C    0.950
                            12 O    0.947
     8   6 C    3.948 --    15 O    0.993     9 C    0.963     7 C    0.950
                            87 H    0.947
     9   6 C    3.929 --    10 C    0.971     8 C    0.963    88 H    0.950
                            17 O    0.940
    10   6 C    3.934 --     9 C    0.971    16 O    0.961    11 C    0.959
                            89 H    0.953
    11   6 C    3.945 --    18 C    0.982    12 O    0.968    10 C    0.959
                            90 H    0.948
    12   8 O    2.060 --    11 C    0.968     7 C    0.947
    13   6 C    3.955 --     3 C    1.002    14 O    0.980    91 H    0.967
                            92 H    0.962
    14   8 O    1.913 --    13 C    0.980    93 H    0.854
    15   8 O    1.941 --     8 C    0.993    94 H    0.851
    16   8 O    2.086 --    20 C    0.985    10 C    0.961
    17   8 O    2.264 --    33 C    1.087     9 C    0.940    35 O    0.146
    18   6 C    3.959 --    19 O    1.011    11 C    0.982    96 H    0.968
                            95 H    0.966
    19   8 O    1.918 --    18 C    1.011    97 H    0.847
    20   6 C    3.927 --    16 O    0.985    21 O    0.958    25 C    0.953
                            98 H    0.936
    21   8 O    2.058 --    20 C    0.958    22 C    0.949
    22   6 C    3.939 --    29 C    0.984    23 C    0.969    99 H    0.950
                            21 O    0.949
    23   6 C    3.967 --    28 O    1.008    22 C    0.969    24 C    0.967
                           100 H    0.957
    24   6 C    3.960 --    26 O    1.001    23 C    0.967    25 C    0.961
                           101 H    0.949
    25   6 C    3.935 --    27 O    0.965    24 C    0.961    20 C    0.953
                           102 H    0.952
    26   8 O    1.925 --    24 C    1.001   103 H    0.842
    27   8 O    2.086 --    53 C    0.983    25 C    0.965
    28   8 O    1.913 --    23 C    1.008   104 H    0.833
    29   6 C    3.926 --    22 C    0.984   105 H    0.962   106 H    0.960
                            30 O    0.959
    30   8 O    2.275 --    31 C    1.089    29 C    0.959    32 O    0.148
    31   6 C    3.892 --    32 O    1.671    30 O    1.089    64 C    1.037
    32   8 O    1.974 --    31 C    1.671    30 O    0.148
    33   6 C    3.892 --    35 O    1.611    17 O    1.087    34 C    1.079
    34   6 C    3.964 --    36 C    1.695    33 C    1.079   107 H    0.959
                            38 C    0.112
    35   8 O    1.971 --    33 C    1.611    17 O    0.146
    36   6 C    3.971 --    34 C    1.695    37 C    1.169   108 H    0.957
    37   6 C    3.984 --    38 C    1.756    36 C    1.169   109 H    0.957
    38   6 C    3.970 --    37 C    1.756    39 C    1.049   110 H    0.962
                            34 C    0.112
    39   6 C    3.983 --    38 C    1.049   111 H    0.969   112 H    0.957
                            40 C    0.932
    40   6 C    3.941 --    41 C    1.008    42 O    0.987   113 H    0.953
                            39 C    0.932
    41   6 C    3.977 --    43 C    1.844    40 C    1.008   114 H    0.961
                            45 C    0.108
    42   8 O    1.924 --    40 C    0.987   115 H    0.860
    43   6 C    3.991 --    41 C    1.844    44 C    1.106   116 H    0.958
    44   6 C    3.988 --    45 C    1.844    43 C    1.106   117 H    0.953
    45   6 C    3.985 --    44 C    1.844    46 C    1.029   118 H    0.964
                            41 C    0.108
    46   6 C    3.996 --    45 C    1.029    47 C    0.983   119 H    0.971
                           120 H    0.969
    47   6 C    3.988 --    48 C    1.006    46 C    0.983   122 H    0.975
                           121 H    0.971
    48   6 C    3.994 --    49 C    1.006    47 C    1.006   124 H    0.976
                           123 H    0.972
    49   6 C    3.996 --    50 C    1.021    48 C    1.006   126 H    0.977
                           125 H    0.975
    50   6 C    3.995 --    49 C    1.021   128 H    0.987   129 H    0.986
                           127 H    0.983
    51   8 O    2.075 --     1 C    1.066   130 H    0.837
    52   8 O    2.082 --     5 C    1.081   131 H    0.839
    53   6 C    3.919 --    27 O    0.983    54 C    0.955    58 O    0.949
                           132 H    0.943
    54   6 C    3.958 --    62 O    1.001    55 C    0.969   133 H    0.955
                            53 C    0.955
    55   6 C    3.967 --    61 O    1.005    54 C    0.969    56 C    0.968
                           134 H    0.956
    56   6 C    3.965 --    60 O    1.003    55 C    0.968    57 C    0.966
                           135 H    0.954
    57   6 C    3.936 --    59 C    0.982    56 C    0.966    58 O    0.947
                           136 H    0.945
    58   8 O    2.054 --    53 C    0.949    57 C    0.947
    59   6 C    3.964 --    63 O    1.016    57 C    0.982   137 H    0.964
                           138 H    0.962
    60   8 O    1.935 --    56 C    1.003   139 H    0.823
    61   8 O    1.925 --    55 C    1.005   140 H    0.837
    62   8 O    1.919 --    54 C    1.001   141 H    0.845
    63   8 O    1.912 --    59 C    1.016   142 H    0.824
    64   6 C    3.974 --    65 C    1.364    69 C    1.360    31 C    1.037
    65   6 C    3.986 --    66 C    1.475    64 C    1.364   143 H    0.956
    66   6 C    3.986 --    65 C    1.475    67 C    1.367   144 H    0.960
    67   6 C    3.984 --    66 C    1.367    68 C    1.367    70 C    1.063
    68   6 C    3.986 --    69 C    1.479    67 C    1.367   145 H    0.964
    69   6 C    3.987 --    68 C    1.479    64 C    1.360   146 H    0.966
    70   6 C    3.985 --    71 C    1.375    75 C    1.365    67 C    1.063
    71   6 C    3.987 --    72 C    1.464    70 C    1.375   147 H    0.963
                            74 C    0.100
    72   6 C    3.988 --    71 C    1.464    73 C    1.364   148 H    0.961
    73   6 C    3.924 --    72 C    1.364    74 C    1.352    76 O    1.045
    74   6 C    3.986 --    75 C    1.482    73 C    1.352   149 H    0.966
                            71 C    0.100
    75   6 C    3.986 --    74 C    1.482    70 C    1.365   150 H    0.965
    76   8 O    2.191 --    73 C    1.045    77 C    0.961
    77   6 C    3.938 --    78 C    1.000   151 H    0.962    76 O    0.961
                           152 H    0.951
    78   6 C    3.987 --    83 C    1.416    79 C    1.409    77 C    1.000
                            81 C    0.108
    79   6 C    3.991 --    80 C    1.446    78 C    1.409   153 H    0.969
                            82 C    0.112
    80   6 C    3.992 --    79 C    1.446    81 C    1.434   154 H    0.969
                            83 C    0.111
    81   6 C    3.992 --    82 C    1.438    80 C    1.434   155 H    0.970
                            78 C    0.108
    82   6 C    3.992 --    83 C    1.441    81 C    1.438   156 H    0.970
                            79 C    0.112
    83   6 C    3.992 --    82 C    1.441    78 C    1.416   157 H    0.967
                            80 C    0.111
    84   1 H    0.995 --     4 C    0.963
    85   1 H    0.994 --     6 C    0.959
    86   1 H    0.998 --     7 C    0.952
    87   1 H    0.995 --     8 C    0.947
    88   1 H    0.999 --     9 C    0.950
    89   1 H    0.993 --    10 C    0.953
    90   1 H    0.997 --    11 C    0.948
    91   1 H    0.998 --    13 C    0.967
    92   1 H    0.999 --    13 C    0.962
    93   1 H    0.867 --    14 O    0.854
    94   1 H    0.903 --    15 O    0.851
    95   1 H    0.998 --    18 C    0.966
    96   1 H    0.995 --    18 C    0.968
    97   1 H    0.867 --    19 O    0.847
    98   1 H    1.000 --    20 C    0.936
    99   1 H    1.000 --    22 C    0.950
   100   1 H    0.997 --    23 C    0.957
   101   1 H    0.996 --    24 C    0.949
   102   1 H    0.990 --    25 C    0.952
   103   1 H    0.859 --    26 O    0.842
   104   1 H    0.855 --    28 O    0.833
   105   1 H    0.989 --    29 C    0.962
   106   1 H    0.993 --    29 C    0.960
   107   1 H    0.993 --    34 C    0.959
   108   1 H    0.996 --    36 C    0.957
   109   1 H    0.994 --    37 C    0.957
   110   1 H    0.995 --    38 C    0.962
   111   1 H    0.995 --    39 C    0.969
   112   1 H    0.988 --    39 C    0.957
   113   1 H    0.997 --    40 C    0.953
   114   1 H    0.997 --    41 C    0.961
   115   1 H    0.876 --    42 O    0.860
   116   1 H    0.999 --    43 C    0.958
   117   1 H    0.998 --    44 C    0.953
   118   1 H    0.999 --    45 C    0.964
   119   1 H    0.998 --    46 C    0.971
   120   1 H    0.997 --    46 C    0.969
   121   1 H    0.999 --    47 C    0.971
   122   1 H    0.999 --    47 C    0.975
   123   1 H    0.998 --    48 C    0.972
   124   1 H    0.999 --    48 C    0.976
   125   1 H    0.999 --    49 C    0.975
   126   1 H    1.000 --    49 C    0.977
   127   1 H    0.998 --    50 C    0.983
   128   1 H    0.999 --    50 C    0.987
   129   1 H    0.998 --    50 C    0.986
   130   1 H    0.857 --    51 O    0.837
   131   1 H    0.857 --    52 O    0.839
   132   1 H    1.000 --    53 C    0.943
   133   1 H    0.996 --    54 C    0.955
   134   1 H    0.999 --    55 C    0.956
   135   1 H    0.997 --    56 C    0.954
   136   1 H    1.000 --    57 C    0.945
   137   1 H    0.997 --    59 C    0.964
   138   1 H    0.997 --    59 C    0.962
   139   1 H    0.852 --    60 O    0.823
   140   1 H    0.854 --    61 O    0.837
   141   1 H    0.862 --    62 O    0.845
   142   1 H    0.866 --    63 O    0.824
   143   1 H    0.995 --    65 C    0.956
   144   1 H    0.995 --    66 C    0.960
   145   1 H    0.996 --    68 C    0.964
   146   1 H    0.997 --    69 C    0.966
   147   1 H    0.998 --    71 C    0.963
   148   1 H    0.997 --    72 C    0.961
   149   1 H    0.996 --    74 C    0.966
   150   1 H    0.996 --    75 C    0.965
   151   1 H    0.997 --    77 C    0.962
   152   1 H    0.994 --    77 C    0.951
   153   1 H    0.999 --    79 C    0.969
   154   1 H    0.998 --    80 C    0.969
   155   1 H    0.998 --    81 C    0.970
   156   1 H    0.998 --    82 C    0.970
   157   1 H    0.999 --    83 C    0.967
 ---------------------------------------------------------------------------

Topologies differ in total number of bonds
Writing topology from bond orders to xtbtopo.mol

molecular dipole:
                 x           y           z       tot (Debye)
 q only:       -3.234      -1.757      -2.332
   full:       -2.925      -1.948      -2.615      11.134
molecular quadrupole (traceless):
                xx          xy          yy          xz          yz          zz
 q only:      -34.231     -20.122      55.862     -31.991      43.653     -21.631
  q+dip:      -45.241     -23.268      51.366     -34.078      50.946      -6.125
   full:      -43.008     -23.818      49.499     -36.649      52.558      -6.491


           -------------------------------------------------
          | TOTAL ENERGY             -257.851421601922 Eh   |
          | GRADIENT NORM               0.127291037575 Eh/α |
          | HOMO-LUMO GAP               1.614532224493 eV   |
           -------------------------------------------------

------------------------------------------------------------------------
 * finished run on 2026/06/19 at 18:53:02.097     
------------------------------------------------------------------------
 total:
 * wall-time:     0 d,  0 h,  0 min,  0.352 sec
 *  cpu-time:     0 d,  0 h,  0 min,  5.389 sec
 * ratio c/w:    15.317 speedup
 SCF:
 * wall-time:     0 d,  0 h,  0 min,  0.292 sec
 *  cpu-time:     0 d,  0 h,  0 min,  4.631 sec
 * ratio c/w:    15.852 speedup

normal termination of xtb
