      -----------------------------------------------------------      
     |                   =====================                   |     
     |                           x T B                           |     
     |                   =====================                   |     
     |                         S. Grimme                         |     
     |          Mulliken Center for Theoretical Chemistry        |     
     |                    University of Bonn                     |     
      -----------------------------------------------------------      

   * xtb version 6.7.1 (edcfbbe) compiled by 'albert@albert-system' on 2024-07-22

   xtb is free software: you can redistribute it and/or modify it under
   the terms of the GNU Lesser General Public License as published by
   the Free Software Foundation, either version 3 of the License, or
   (at your option) any later version.
   
   xtb is distributed in the hope that it will be useful,
   but WITHOUT ANY WARRANTY; without even the implied warranty of
   MERCHANTABILITY or FITNESS FOR A PARTICULAR PURPOSE.  See the
   GNU Lesser General Public License for more details.
   
   Cite this work as:
   * C. Bannwarth, E. Caldeweyher, S. Ehlert, A. Hansen, P. Pracht,
     J. Seibert, S. Spicher, S. Grimme, WIREs Comput. Mol. Sci., 2020, 11,
     e01493. DOI: 10.1002/wcms.1493
   
   for GFN2-xTB:
   * C. Bannwarth, S. Ehlert and S. Grimme., J. Chem. Theory Comput., 2019,
     15, 1652-1671. DOI: 10.1021/acs.jctc.8b01176
   for GFN1-xTB:
   * S. Grimme, C. Bannwarth, P. Shushkov, J. Chem. Theory Comput., 2017,
     13, 1989-2009. DOI: 10.1021/acs.jctc.7b00118
   for GFN0-xTB:
   * P. Pracht, E. Caldeweyher, S. Ehlert, S. Grimme, ChemRxiv, 2019, preprint.
     DOI: 10.26434/chemrxiv.8326202.v1
   for GFN-FF:
   * S. Spicher and S. Grimme, Angew. Chem. Int. Ed., 2020, 59, 15665-15673.
     DOI: 10.1002/anie.202004239
   
   for ALPB and GBSA implicit solvation:
   * S. Ehlert, M. Stahn, S. Spicher, S. Grimme, J. Chem. Theory Comput.,
     2021, 17, 4250-4261. DOI: 10.1021/acs.jctc.1c00471
   
   for ddCOSMO and CPCM-X implicit solvation:
   * M. Stahn, S. Ehlert, S. Grimme, J. Phys. Chem. A,
     2023, XX, XXXX-XXXX. DOI: 10.1021/acs.jpca.3c04382
   
   for DFT-D4:
   * E. Caldeweyher, C. Bannwarth and S. Grimme, J. Chem. Phys., 2017,
     147, 034112. DOI: 10.1063/1.4993215
   * E. Caldeweyher, S. Ehlert, A. Hansen, H. Neugebauer, S. Spicher,
     C. Bannwarth and S. Grimme, J. Chem. Phys., 2019, 150, 154122.
     DOI: 10.1063/1.5090222
   * E. Caldeweyher, J.-M. Mewes, S. Ehlert and S. Grimme, Phys. Chem. Chem. Phys.
     2020, 22, 8499-8512. DOI: 10.1039/D0CP00502A
   
   for sTDA-xTB:
   * S. Grimme and C. Bannwarth, J. Chem. Phys., 2016, 145, 054103.
     DOI: 10.1063/1.4959605
   
   in the mass-spec context:
   * V. Asgeirsson, C. Bauer and S. Grimme, Chem. Sci., 2017, 8, 4879.
     DOI: 10.1039/c7sc00601b
   * J. Koopman and S. Grimme, ACS Omega 2019, 4, 12, 15120-15133.
     DOI: 10.1021/acsomega.9b02011
   
   for metadynamics refer to:
   * S. Grimme, J. Chem. Theory Comput., 2019, 155, 2847-2862
     DOI: 10.1021/acs.jctc.9b00143
   
   for SPH calculations refer to:
   * S. Spicher and S. Grimme, J. Chem. Theory Comput., 2021, 17, 1701-1714
     DOI: 10.1021/acs.jctc.0c01306
   
   for ONIOM refer to:
   * C. Plett, A. Katbashev, S. Ehlert, S. Grimme, M. Bursch,
     Phys. Chem. Chem. Phys., 2023, 25, 17860-17868. DOI: 10.1039/D3CP02178E
   
   for DIPRO refer to:
   * J. Kohn, N. Gildemeister, S. Grimme, D. Fazzi, A. Hansen,
     J. Chem. Phys., 2023, just accepted.
   
   for PTB refer to:
   * S. Grimme, M. Mueller, A. Hansen, J. Chem. Phys., 2023, 158, 124111.
     DOI: 10.1063/5.0137838
   
   with help from (in alphabetical order)
   P. Atkinson, C. Bannwarth, F. Bohle, G. Brandenburg, E. Caldeweyher
   M. Checinski, S. Dohm, S. Ehlert, S. Ehrlich, I. Gerasimov, C. Hölzer
   A. Katbashev, J. Kohn, J. Koopman, C. Lavigne, S. Lehtola, F. März, M. Müller,
   F. Musil, H. Neugebauer, J. Pisarek, C. Plett, P. Pracht, F. Pultar,
   J. Seibert, P. Shushkov, S. Spicher, M. Stahn, M. Steiner, T. Strunk,
   J. Stückrath, T. Rose, and J. Unsleber
   
 * started run on 2026/06/19 at 18:53:00.287     
   ID    Z sym.   atoms
    1    6 C      1-11, 13, 18, 20, 22-25, 29, 31, 33, 34, 36-41, 43-50,
                  53-57, 59, 64-75, 77-83
    2    8 O      12, 14-17, 19, 21, 26-28, 30, 32, 35, 42, 51, 52, 58,
                  60-63, 76
    3    1 H      84-157

           -------------------------------------------------
          |                Calculation Setup                |
           -------------------------------------------------

          program call               : xtb PAPU-0088/conf03.xyz --gfn 2 --alpb water --chrg 0 --uhf 0 --namespace PAPU-0088/conf03_water
          hostname                   : cpu10
          calculation namespace      : PAPU-0088/conf03_water
          coordinate file            : PAPU-0088/conf03.xyz
          omp threads                :                    16


           -------------------------------------------------
          |                 G F N 2 - x T B                 |
           -------------------------------------------------

        Reference                      10.1021/acs.jctc.8b01176
      * Hamiltonian:
        H0-scaling (s, p, d)           1.850000    2.230000    2.230000
        zeta-weighting                 0.500000
      * Dispersion:
        s8                             2.700000
        a1                             0.520000
        a2                             5.000000
        s9                             5.000000
      * Repulsion:
        kExp                           1.500000    1.000000
        rExp                           1.000000
      * Coulomb:
        alpha                          2.000000
        third order                    shell-resolved
        anisotropic                    true
        a3                             3.000000
        a5                             4.000000
        cn-shift                       1.200000
        cn-exp                         4.000000
        max-rad                        5.000000

      * Solvation model:               ALPB
        Solvent                        water
        Parameter file                 internal GFN2-xTB/ALPB
        Dielectric constant                8.0200E+01
        Reference state                gsolv [1 M gas/solution]
        Free energy shift                  1.0808E-03 Eh       6.7819E-01 kcal/mol
        Temperature                        2.9815E+02 K
        Density                            1.0000E+00 kg/L
        Solvent mass                       1.8000E+01 g/mol
        Interaction kernel             P16
        Born radius scaling (c1)           1.4744E+00
        Born radii integrator          GBOBC
        Born offset                        0.0000E+00 a0       0.0000E+00 AA
        H-bond correction              true
        Ion screening                  false
        Surface tension                    1.0000E-05 Eh       1.5569E+01 dyn/cm
        Grid points                               230 per atom

          ...................................................
          :                      SETUP                      :
          :.................................................:
          :  # basis functions                 406          :
          :  # atomic orbitals                 406          :
          :  # shells                          240          :
          :  # electrons                       450          :
          :  max. iterations                   250          :
          :  Hamiltonian                  GFN2-xTB          :
          :  restarted?                      false          :
          :  GBSA solvation                   true          :
          :  PC potential                    false          :
          :  electronic temp.          300.0000000     K    :
          :  accuracy                    1.0000000          :
          :  -> integral cutoff          0.2500000E+02      :
          :  -> integral neglect         0.1000000E-07      :
          :  -> SCF convergence          0.1000000E-05 Eh   :
          :  -> wf. convergence          0.1000000E-03 e    :
          :  Broyden damping             0.4000000          :
          :  net charge                          0          :
          :  unpaired electrons                  0          :
          ...................................................

 iter      E             dE          RMSdq      gap      omega  full diag
   1   -260.5482546 -0.260548E+03  0.462E+00    2.27       0.0  T
   2   -260.7971524 -0.248898E+00  0.255E+00    1.80       1.0  T
   3   -260.7739354  0.232170E-01  0.103E+00    1.78       1.0  T
   4   -260.8201503 -0.462149E-01  0.333E-01    1.50       1.0  T
   5   -260.8275676 -0.741732E-02  0.141E-01    1.52       1.0  T
   6   -260.8285336 -0.965926E-03  0.721E-02    1.52       1.0  T
   7   -260.8287159 -0.182334E-03  0.341E-02    1.53       1.0  T
   8   -260.8287663 -0.504502E-04  0.151E-02    1.52       1.0  T
   9   -260.8287759 -0.950619E-05  0.714E-03    1.52       1.1  T
  10   -260.8287776 -0.172123E-05  0.381E-03    1.52       2.1  T
  11   -260.8287781 -0.547828E-06  0.199E-03    1.52       4.0  T
  12   -260.8287783 -0.199512E-06  0.777E-04    1.52      10.3  T
  13   -260.8287784 -0.306238E-07  0.416E-04    1.52      19.2  T

   *** convergence criteria satisfied after 13 iterations ***

         #    Occupation            Energy/Eh            Energy/eV
      -------------------------------------------------------------
         1        2.0000           -0.7745699             -21.0771
       ...           ...                  ...                  ...
       219        2.0000           -0.4025527             -10.9540
       220        2.0000           -0.4002205             -10.8906
       221        2.0000           -0.3981228             -10.8335
       222        2.0000           -0.3944466             -10.7334
       223        2.0000           -0.3826276             -10.4118
       224        2.0000           -0.3779755             -10.2852
       225        2.0000           -0.3695085             -10.0548 (HOMO)
       226                         -0.3137557              -8.5377 (LUMO)
       227                         -0.2879057              -7.8343
       228                         -0.2415740              -6.5736
       229                         -0.2322967              -6.3211
       230                         -0.2321304              -6.3166
       ...                                ...                  ...
       406                          0.6906213              18.7928
      -------------------------------------------------------------
                  HL-Gap            0.0557528 Eh            1.5171 eV
             Fermi-level           -0.3416321 Eh           -9.2963 eV

 SCC (total)                   0 d,  0 h,  0 min,  0.297 sec
 SCC setup                      ...        0 min,  0.004 sec (  1.241%)
 Dispersion                     ...        0 min,  0.005 sec (  1.713%)
 classical contributions        ...        0 min,  0.000 sec (  0.044%)
 integral evaluation            ...        0 min,  0.013 sec (  4.368%)
 iterations                     ...        0 min,  0.228 sec ( 76.845%)
 molecular gradient             ...        0 min,  0.045 sec ( 15.046%)
 printout                       ...        0 min,  0.002 sec (  0.726%)

         :::::::::::::::::::::::::::::::::::::::::::::::::::::
         ::                     SUMMARY                     ::
         :::::::::::::::::::::::::::::::::::::::::::::::::::::
         :: total energy            -257.853702523555 Eh    ::
         :: total w/o Gsasa/hb      -257.805714569031 Eh    ::
         :: gradient norm              0.126637212431 Eh/a0 ::
         :: HOMO-LUMO gap              1.517110359778 eV    ::
         ::.................................................::
         :: SCC energy              -260.809219601972 Eh    ::
         :: -> isotropic ES            0.585346066935 Eh    ::
         :: -> anisotropic ES         -0.027422626606 Eh    ::
         :: -> anisotropic XC          0.029506043308 Eh    ::
         :: -> dispersion             -0.226591088112 Eh    ::
         :: -> Gsolv                  -0.113324494081 Eh    ::
         ::    -> Gelec               -0.065336539557 Eh    ::
         ::    -> Gsasa                0.007557293195 Eh    ::
         ::    -> Ghb                 -0.056626007417 Eh    ::
         ::    -> Gshift               0.001080759698 Eh    ::
         :: repulsion energy           2.955517078417 Eh    ::
         :: add. restraining           0.000000000000 Eh    ::
         :: total charge               0.000000000000 e     ::
         :::::::::::::::::::::::::::::::::::::::::::::::::::::

           -------------------------------------------------
          |                Property Printout                |
           -------------------------------------------------

    * Orbital Energies and Occupations

         #    Occupation            Energy/Eh            Energy/eV
      -------------------------------------------------------------
         1        2.0000           -0.7745699             -21.0771
       ...           ...                  ...                  ...
       213        2.0000           -0.4144216             -11.2770
       214        2.0000           -0.4132341             -11.2447
       215        2.0000           -0.4109937             -11.1837
       216        2.0000           -0.4068223             -11.0702
       217        2.0000           -0.4062981             -11.0559
       218        2.0000           -0.4056731             -11.0389
       219        2.0000           -0.4025527             -10.9540
       220        2.0000           -0.4002205             -10.8906
       221        2.0000           -0.3981228             -10.8335
       222        2.0000           -0.3944466             -10.7334
       223        2.0000           -0.3826276             -10.4118
       224        2.0000           -0.3779755             -10.2852
       225        2.0000           -0.3695085             -10.0548 (HOMO)
       226                         -0.3137557              -8.5377 (LUMO)
       227                         -0.2879057              -7.8343
       228                         -0.2415740              -6.5736
       229                         -0.2322967              -6.3211
       230                         -0.2321304              -6.3166
       231                         -0.2301982              -6.2640
       232                         -0.2290505              -6.2328
       233                         -0.2242123              -6.1011
       234                         -0.2236862              -6.0868
       235                         -0.2193696              -5.9694
       236                         -0.2169984              -5.9048
       ...                                ...                  ...
       406                          0.6906213              18.7928
      -------------------------------------------------------------
                  HL-Gap            0.0557528 Eh            1.5171 eV
             Fermi-level           -0.3416321 Eh           -9.2963 eV

     #   Z          covCN         q      C6AA      α(0)
     1   6 C        2.841     0.140    24.952     8.186
     2   6 C        2.974    -0.030    28.739     8.793
     3   6 C        2.965     0.010    27.795     8.648
     4   6 C        2.929    -0.070    29.749     8.945
     5   6 C        2.839     0.147    24.793     8.160
     6   6 C        2.920    -0.110    30.790     9.099
     7   6 C        3.744     0.105    18.915     6.204
     8   6 C        3.722     0.094    19.133     6.247
     9   6 C        3.764     0.111    18.800     6.180
    10   6 C        3.744     0.095    19.079     6.231
    11   6 C        3.741     0.090    19.166     6.246
    12   8 O        1.695    -0.348    19.864     6.017
    13   6 C        3.681     0.075    19.525     6.328
    14   8 O        1.653    -0.510    23.116     6.490
    15   8 O        1.651    -0.471    22.271     6.371
    16   8 O        1.698    -0.330    19.522     5.965
    17   8 O        1.702    -0.296    18.930     5.874
    18   6 C        3.675     0.077    19.513     6.330
    19   8 O        1.654    -0.492    22.714     6.434
    20   6 C        3.645     0.252    17.012     5.928
    21   8 O        1.696    -0.358    20.039     6.044
    22   6 C        3.753     0.116    18.734     6.172
    23   6 C        3.721     0.095    19.110     6.243
    24   6 C        3.721     0.088    19.223     6.262
    25   6 C        3.751     0.086    19.212     6.251
    26   8 O        1.654    -0.490    22.684     6.429
    27   8 O        1.699    -0.322    19.388     5.945
    28   8 O        1.653    -0.493    22.749     6.439
    29   6 C        3.736     0.072    19.457     6.295
    30   8 O        1.703    -0.277    18.592     5.822
    31   6 C        2.757     0.347    21.109     7.524
    32   8 O        0.857    -0.480    23.353     6.479
    33   6 C        2.739     0.355    20.977     7.499
    34   6 C        2.897    -0.087    30.192     9.009
    35   8 O        0.858    -0.497    23.719     6.530
    36   6 C        2.904     0.005    27.911     8.663
    37   6 C        2.899    -0.038    28.955     8.823
    38   6 C        2.895    -0.014    28.360     8.731
    39   6 C        3.807    -0.080    22.025     6.681
    40   6 C        3.727     0.126    18.629     6.162
    41   6 C        2.896    -0.055    29.368     8.885
    42   8 O        1.652    -0.511    23.132     6.492
    43   6 C        2.898    -0.039    28.980     8.827
    44   6 C        2.898    -0.053    29.304     8.876
    45   6 C        2.895    -0.033    28.819     8.802
    46   6 C        3.804    -0.056    21.575     6.613
    47   6 C        3.801    -0.063    21.701     6.632
    48   6 C        3.801    -0.056    21.575     6.613
    49   6 C        3.799    -0.052    21.510     6.604
    50   6 C        3.751    -0.105    22.564     6.774
    51   8 O        1.656    -0.450    21.850     6.310
    52   8 O        1.657    -0.445    21.751     6.296
    53   6 C        3.648     0.239    17.175     5.954
    54   6 C        3.722     0.089    19.214     6.260
    55   6 C        3.724     0.098    19.058     6.234
    56   6 C        3.721     0.093    19.141     6.249
    57   6 C        3.740     0.105    18.932     6.208
    58   8 O        1.696    -0.372    20.303     6.084
    59   6 C        3.674     0.084    19.406     6.313
    60   8 O        1.653    -0.490    22.668     6.427
    61   8 O        1.654    -0.486    22.598     6.417
    62   8 O        1.654    -0.492    22.724     6.435
    63   8 O        1.654    -0.497    22.817     6.448
    64   6 C        2.975    -0.027    28.673     8.783
    65   6 C        2.926    -0.024    28.594     8.769
    66   6 C        2.928    -0.027    28.679     8.782
    67   6 C        2.976     0.025    27.432     8.591
    68   6 C        2.925    -0.034    28.839     8.807
    69   6 C        2.925    -0.015    28.380     8.736
    70   6 C        2.976     0.001    27.992     8.679
    71   6 C        2.923    -0.031    28.768     8.796
    72   6 C        2.919    -0.060    29.492     8.906
    73   6 C        2.860     0.141    24.924     8.183
    74   6 C        2.921    -0.051    29.276     8.873
    75   6 C        2.923    -0.034    28.840     8.807
    76   8 O        1.700    -0.308    19.130     5.905
    77   6 C        3.701     0.071    19.542     6.321
    78   6 C        2.971    -0.001    28.060     8.689
    79   6 C        2.929    -0.044    29.085     8.844
    80   6 C        2.922    -0.033    28.818     8.803
    81   6 C        2.925    -0.033    28.833     8.806
    82   6 C        2.922    -0.032    28.798     8.800
    83   6 C        2.930    -0.034    28.855     8.809
    84   1 H        0.926     0.067     2.121     2.277
    85   1 H        0.926     0.072     2.061     2.245
    86   1 H        0.924     0.043     2.408     2.427
    87   1 H        0.923     0.070     2.090     2.261
    88   1 H        0.924     0.026     2.641     2.542
    89   1 H        0.923     0.083     1.945     2.181
    90   1 H        0.924     0.049     2.334     2.389
    91   1 H        0.924     0.040     2.450     2.448
    92   1 H        0.924     0.036     2.498     2.472
    93   1 H        0.804     0.362     0.562     1.177
    94   1 H        0.802     0.311     0.688     1.303
    95   1 H        0.924     0.047     2.355     2.400
    96   1 H        0.924     0.063     2.161     2.299
    97   1 H        0.803     0.365     0.555     1.171
    98   1 H        0.924    -0.007     3.180     2.789
    99   1 H        0.923     0.021     2.717     2.578
   100   1 H        0.923     0.049     2.328     2.386
   101   1 H        0.923     0.059     2.211     2.325
   102   1 H        0.924     0.096     1.819     2.109
   103   1 H        0.804     0.376     0.532     1.146
   104   1 H        0.803     0.380     0.522     1.135
   105   1 H        0.924     0.104     1.752     2.070
   106   1 H        0.924     0.080     1.976     2.198
   107   1 H        0.926     0.083     1.949     2.183
   108   1 H        0.926     0.070     2.088     2.260
   109   1 H        0.926     0.073     2.050     2.239
   110   1 H        0.926     0.070     2.081     2.256
   111   1 H        0.924     0.071     2.071     2.250
   112   1 H        0.924     0.072     2.066     2.248
   113   1 H        0.923     0.027     2.632     2.537
   114   1 H        0.926     0.055     2.258     2.350
   115   1 H        0.804     0.357     0.573     1.189
   116   1 H        0.926     0.030     2.585     2.514
   117   1 H        0.926     0.038     2.470     2.457
   118   1 H        0.926     0.031     2.570     2.507
   119   1 H        0.924     0.042     2.422     2.434
   120   1 H        0.924     0.042     2.420     2.433
   121   1 H        0.924     0.033     2.550     2.497
   122   1 H        0.924     0.041     2.434     2.440
   123   1 H        0.924     0.027     2.627     2.535
   124   1 H        0.924     0.022     2.707     2.573
   125   1 H        0.924     0.022     2.698     2.569
   126   1 H        0.924     0.031     2.573     2.509
   127   1 H        0.924     0.030     2.586     2.515
   128   1 H        0.924     0.041     2.433     2.439
   129   1 H        0.924     0.036     2.503     2.474
   130   1 H        0.804     0.377     0.529     1.142
   131   1 H        0.804     0.377     0.529     1.142
   132   1 H        0.923     0.001     3.038     2.726
   133   1 H        0.923     0.063     2.165     2.301
   134   1 H        0.923     0.031     2.569     2.506
   135   1 H        0.923     0.052     2.300     2.372
   136   1 H        0.924     0.011     2.877     2.652
   137   1 H        0.924     0.047     2.355     2.400
   138   1 H        0.924     0.051     2.306     2.375
   139   1 H        0.803     0.385     0.513     1.125
   140   1 H        0.804     0.381     0.521     1.134
   141   1 H        0.804     0.371     0.541     1.156
   142   1 H        0.803     0.367     0.551     1.166
   143   1 H        0.926     0.062     2.181     2.309
   144   1 H        0.926     0.069     2.102     2.267
   145   1 H        0.926     0.059     2.210     2.325
   146   1 H        0.926     0.048     2.339     2.391
   147   1 H        0.926     0.040     2.454     2.450
   148   1 H        0.926     0.048     2.341     2.393
   149   1 H        0.926     0.061     2.188     2.313
   150   1 H        0.926     0.055     2.256     2.349
   151   1 H        0.924     0.042     2.420     2.433
   152   1 H        0.924     0.069     2.102     2.267
   153   1 H        0.926     0.033     2.541     2.493
   154   1 H        0.926     0.050     2.318     2.381
   155   1 H        0.926     0.037     2.489     2.467
   156   1 H        0.926     0.036     2.502     2.474
   157   1 H        0.926     0.042     2.424     2.435

 Mol. C6AA /au·bohr⁶  :     253930.375169
 Mol. C8AA /au·bohr⁸  :    5871604.701313
 Mol. α(0) /au        :        765.800186


Wiberg/Mayer (AO) data.
largest (>0.10) Wiberg bond orders for each atom

 ---------------------------------------------------------------------------
     #   Z sym  total        # sym  WBO       # sym  WBO       # sym  WBO
 ---------------------------------------------------------------------------
     1   6 C    3.942 --     6 C    1.390     2 C    1.337    51 O    1.066
     2   6 C    3.975 --     3 C    1.392     1 C    1.337     7 C    0.992
     3   6 C    3.988 --     4 C    1.432     2 C    1.392    13 C    1.001
     4   6 C    3.984 --     3 C    1.432     5 C    1.359    84 H    0.965
     5   6 C    3.945 --     6 C    1.377     4 C    1.359    52 O    1.079
     6   6 C    3.974 --     1 C    1.390     5 C    1.377    85 H    0.959
     7   6 C    3.937 --     2 C    0.992    86 H    0.952     8 C    0.949
                            12 O    0.947
     8   6 C    3.947 --    15 O    0.992     9 C    0.964     7 C    0.949
                            87 H    0.947
     9   6 C    3.929 --    10 C    0.971     8 C    0.964    88 H    0.950
                            17 O    0.939
    10   6 C    3.934 --     9 C    0.971    16 O    0.961    11 C    0.958
                            89 H    0.953
    11   6 C    3.945 --    18 C    0.982    12 O    0.968    10 C    0.958
                            90 H    0.949
    12   8 O    2.062 --    11 C    0.968     7 C    0.947
    13   6 C    3.954 --     3 C    1.001    14 O    0.980    91 H    0.966
                            92 H    0.961
    14   8 O    1.913 --    13 C    0.980    93 H    0.854
    15   8 O    1.944 --     8 C    0.992    94 H    0.850
    16   8 O    2.087 --    20 C    0.985    10 C    0.961
    17   8 O    2.261 --    33 C    1.084     9 C    0.939    35 O    0.145
    18   6 C    3.959 --    19 O    1.011    11 C    0.982    96 H    0.968
                            95 H    0.966
    19   8 O    1.918 --    18 C    1.011    97 H    0.847
    20   6 C    3.927 --    16 O    0.985    21 O    0.958    25 C    0.953
                            98 H    0.936
    21   8 O    2.058 --    20 C    0.958    22 C    0.950
    22   6 C    3.939 --    29 C    0.984    23 C    0.969    21 O    0.950
                            99 H    0.950
    23   6 C    3.967 --    28 O    1.008    22 C    0.969    24 C    0.967
                           100 H    0.957
    24   6 C    3.960 --    26 O    1.001    23 C    0.967    25 C    0.962
                           101 H    0.949
    25   6 C    3.935 --    27 O    0.964    24 C    0.962    20 C    0.953
                           102 H    0.952
    26   8 O    1.924 --    24 C    1.001   103 H    0.842
    27   8 O    2.087 --    53 C    0.984    25 C    0.964
    28   8 O    1.913 --    23 C    1.008   104 H    0.833
    29   6 C    3.926 --    22 C    0.984   105 H    0.962   106 H    0.960
                            30 O    0.959
    30   8 O    2.274 --    31 C    1.088    29 C    0.959    32 O    0.148
    31   6 C    3.892 --    32 O    1.672    30 O    1.088    64 C    1.037
    32   8 O    1.974 --    31 C    1.672    30 O    0.148
    33   6 C    3.893 --    35 O    1.609    17 O    1.084    34 C    1.082
    34   6 C    3.965 --    36 C    1.698    33 C    1.082   107 H    0.959
                            38 C    0.111
    35   8 O    1.969 --    33 C    1.609    17 O    0.145
    36   6 C    3.970 --    34 C    1.698    37 C    1.168   108 H    0.957
    37   6 C    3.984 --    38 C    1.762    36 C    1.168   109 H    0.958
    38   6 C    3.969 --    37 C    1.762    39 C    1.046   110 H    0.962
                            34 C    0.111
    39   6 C    3.982 --    38 C    1.046   111 H    0.966   112 H    0.962
                            40 C    0.932
    40   6 C    3.943 --    41 C    1.012    42 O    0.981   113 H    0.958
                            39 C    0.932
    41   6 C    3.976 --    43 C    1.826    40 C    1.012   114 H    0.963
                            45 C    0.128
    42   8 O    1.913 --    40 C    0.981   115 H    0.857
    43   6 C    3.991 --    41 C    1.826    44 C    1.126   116 H    0.960
    44   6 C    3.988 --    45 C    1.822    43 C    1.126   117 H    0.963
    45   6 C    3.983 --    44 C    1.822    46 C    1.035   118 H    0.960
                            41 C    0.128
    46   6 C    3.996 --    45 C    1.035    47 C    0.998   119 H    0.970
                           120 H    0.947
    47   6 C    3.991 --    48 C    1.008    46 C    0.998   121 H    0.971
                           122 H    0.969
    48   6 C    3.996 --    47 C    1.008    49 C    1.008   123 H    0.976
                           124 H    0.972
    49   6 C    3.997 --    50 C    1.021    48 C    1.008   126 H    0.976
                           125 H    0.976
    50   6 C    3.996 --    49 C    1.021   127 H    0.987   129 H    0.987
                           128 H    0.981
    51   8 O    2.075 --     1 C    1.066   130 H    0.837
    52   8 O    2.078 --     5 C    1.079   131 H    0.838
    53   6 C    3.919 --    27 O    0.984    54 C    0.955    58 O    0.948
                           132 H    0.943
    54   6 C    3.958 --    62 O    1.001    55 C    0.969   133 H    0.955
                            53 C    0.955
    55   6 C    3.967 --    61 O    1.005    54 C    0.969    56 C    0.968
                           134 H    0.956
    56   6 C    3.965 --    60 O    1.003    55 C    0.968    57 C    0.966
                           135 H    0.955
    57   6 C    3.936 --    59 C    0.982    56 C    0.966    58 O    0.948
                           136 H    0.944
    58   8 O    2.054 --    53 C    0.948    57 C    0.948
    59   6 C    3.964 --    63 O    1.016    57 C    0.982   137 H    0.964
                           138 H    0.962
    60   8 O    1.935 --    56 C    1.003   139 H    0.823
    61   8 O    1.926 --    55 C    1.005   140 H    0.838
    62   8 O    1.919 --    54 C    1.001   141 H    0.844
    63   8 O    1.912 --    59 C    1.016   142 H    0.824
    64   6 C    3.974 --    65 C    1.364    69 C    1.360    31 C    1.037
    65   6 C    3.986 --    66 C    1.475    64 C    1.364   143 H    0.958
    66   6 C    3.985 --    65 C    1.475    67 C    1.366   144 H    0.958
    67   6 C    3.984 --    68 C    1.368    66 C    1.366    70 C    1.063
    68   6 C    3.986 --    69 C    1.478    67 C    1.368   145 H    0.965
    69   6 C    3.987 --    68 C    1.478    64 C    1.360   146 H    0.966
    70   6 C    3.985 --    71 C    1.374    75 C    1.367    67 C    1.063
    71   6 C    3.987 --    72 C    1.464    70 C    1.374   147 H    0.964
    72   6 C    3.988 --    71 C    1.464    73 C    1.365   148 H    0.959
    73   6 C    3.923 --    72 C    1.365    74 C    1.354    76 O    1.041
    74   6 C    3.986 --    75 C    1.481    73 C    1.354   149 H    0.965
    75   6 C    3.986 --    74 C    1.481    70 C    1.367   150 H    0.964
    76   8 O    2.187 --    73 C    1.041    77 C    0.958
    77   6 C    3.939 --    78 C    1.000   151 H    0.965    76 O    0.958
                           152 H    0.953
    78   6 C    3.987 --    83 C    1.416    79 C    1.408    77 C    1.000
                            81 C    0.109
    79   6 C    3.991 --    80 C    1.446    78 C    1.408   153 H    0.969
                            82 C    0.111
    80   6 C    3.991 --    79 C    1.446    81 C    1.435   154 H    0.966
                            83 C    0.111
    81   6 C    3.992 --    82 C    1.443    80 C    1.435   155 H    0.971
                            78 C    0.109
    82   6 C    3.992 --    81 C    1.443    83 C    1.441   156 H    0.970
                            79 C    0.111
    83   6 C    3.992 --    82 C    1.441    78 C    1.416   157 H    0.966
                            80 C    0.111
    84   1 H    0.995 --     4 C    0.965
    85   1 H    0.994 --     6 C    0.959
    86   1 H    0.998 --     7 C    0.952
    87   1 H    0.995 --     8 C    0.947
    88   1 H    0.999 --     9 C    0.950
    89   1 H    0.993 --    10 C    0.953
    90   1 H    0.998 --    11 C    0.949
    91   1 H    0.998 --    13 C    0.966
    92   1 H    0.998 --    13 C    0.961
    93   1 H    0.868 --    14 O    0.854
    94   1 H    0.903 --    15 O    0.850
    95   1 H    0.998 --    18 C    0.966
    96   1 H    0.995 --    18 C    0.968
    97   1 H    0.867 --    19 O    0.847
    98   1 H    1.000 --    20 C    0.936
    99   1 H    1.000 --    22 C    0.950
   100   1 H    0.997 --    23 C    0.957
   101   1 H    0.996 --    24 C    0.949
   102   1 H    0.990 --    25 C    0.952
   103   1 H    0.859 --    26 O    0.842
   104   1 H    0.855 --    28 O    0.833
   105   1 H    0.989 --    29 C    0.962
   106   1 H    0.993 --    29 C    0.960
   107   1 H    0.993 --    34 C    0.959
   108   1 H    0.995 --    36 C    0.957
   109   1 H    0.995 --    37 C    0.958
   110   1 H    0.995 --    38 C    0.962
   111   1 H    0.994 --    39 C    0.966
   112   1 H    0.991 --    39 C    0.962
   113   1 H    0.999 --    40 C    0.958
   114   1 H    0.997 --    41 C    0.963
   115   1 H    0.872 --    42 O    0.857
   116   1 H    0.999 --    43 C    0.960
   117   1 H    0.998 --    44 C    0.963
   118   1 H    0.999 --    45 C    0.960
   119   1 H    0.998 --    46 C    0.970
   120   1 H    0.991 --    46 C    0.947
   121   1 H    0.999 --    47 C    0.971
   122   1 H    0.998 --    47 C    0.969
   123   1 H    0.999 --    48 C    0.976
   124   1 H    0.999 --    48 C    0.972
   125   1 H    0.999 --    49 C    0.976
   126   1 H    0.999 --    49 C    0.976
   127   1 H    0.999 --    50 C    0.987
   128   1 H    0.998 --    50 C    0.981
   129   1 H    0.998 --    50 C    0.987
   130   1 H    0.857 --    51 O    0.837
   131   1 H    0.857 --    52 O    0.838
   132   1 H    1.000 --    53 C    0.943
   133   1 H    0.996 --    54 C    0.955
   134   1 H    0.999 --    55 C    0.956
   135   1 H    0.997 --    56 C    0.955
   136   1 H    1.000 --    57 C    0.944
   137   1 H    0.997 --    59 C    0.964
   138   1 H    0.997 --    59 C    0.962
   139   1 H    0.852 --    60 O    0.823
   140   1 H    0.854 --    61 O    0.838
   141   1 H    0.862 --    62 O    0.844
   142   1 H    0.865 --    63 O    0.824
   143   1 H    0.996 --    65 C    0.958
   144   1 H    0.995 --    66 C    0.958
   145   1 H    0.996 --    68 C    0.965
   146   1 H    0.997 --    69 C    0.966
   147   1 H    0.998 --    71 C    0.964
   148   1 H    0.997 --    72 C    0.959
   149   1 H    0.996 --    74 C    0.965
   150   1 H    0.996 --    75 C    0.964
   151   1 H    0.998 --    77 C    0.965
   152   1 H    0.995 --    77 C    0.953
   153   1 H    0.999 --    79 C    0.969
   154   1 H    0.997 --    80 C    0.966
   155   1 H    0.998 --    81 C    0.971
   156   1 H    0.998 --    82 C    0.970
   157   1 H    0.998 --    83 C    0.966
 ---------------------------------------------------------------------------

Topologies differ in total number of bonds
Writing topology from bond orders to xtbtopo.mol

molecular dipole:
                 x           y           z       tot (Debye)
 q only:       -3.312      -1.906      -1.228
   full:       -3.045      -2.180      -1.284      10.063
molecular quadrupole (traceless):
                xx          xy          yy          xz          yz          zz
 q only:      -37.582     -14.951      61.793     -51.407      22.177     -24.211
  q+dip:      -52.658     -18.037      61.013     -57.930      24.440      -8.355
   full:      -48.887     -18.009      59.292     -59.953      25.591     -10.405


           -------------------------------------------------
          | TOTAL ENERGY             -257.853702523555 Eh   |
          | GRADIENT NORM               0.126637212431 Eh/α |
          | HOMO-LUMO GAP               1.517110359778 eV   |
           -------------------------------------------------

------------------------------------------------------------------------
 * finished run on 2026/06/19 at 18:53:00.640     
------------------------------------------------------------------------
 total:
 * wall-time:     0 d,  0 h,  0 min,  0.352 sec
 *  cpu-time:     0 d,  0 h,  0 min,  5.429 sec
 * ratio c/w:    15.407 speedup
 SCF:
 * wall-time:     0 d,  0 h,  0 min,  0.297 sec
 *  cpu-time:     0 d,  0 h,  0 min,  4.716 sec
 * ratio c/w:    15.863 speedup

normal termination of xtb
