      -----------------------------------------------------------      
     |                   =====================                   |     
     |                           x T B                           |     
     |                   =====================                   |     
     |                         S. Grimme                         |     
     |          Mulliken Center for Theoretical Chemistry        |     
     |                    University of Bonn                     |     
      -----------------------------------------------------------      

   * xtb version 6.7.1 (edcfbbe) compiled by 'albert@albert-system' on 2024-07-22

   xtb is free software: you can redistribute it and/or modify it under
   the terms of the GNU Lesser General Public License as published by
   the Free Software Foundation, either version 3 of the License, or
   (at your option) any later version.
   
   xtb is distributed in the hope that it will be useful,
   but WITHOUT ANY WARRANTY; without even the implied warranty of
   MERCHANTABILITY or FITNESS FOR A PARTICULAR PURPOSE.  See the
   GNU Lesser General Public License for more details.
   
   Cite this work as:
   * C. Bannwarth, E. Caldeweyher, S. Ehlert, A. Hansen, P. Pracht,
     J. Seibert, S. Spicher, S. Grimme, WIREs Comput. Mol. Sci., 2020, 11,
     e01493. DOI: 10.1002/wcms.1493
   
   for GFN2-xTB:
   * C. Bannwarth, S. Ehlert and S. Grimme., J. Chem. Theory Comput., 2019,
     15, 1652-1671. DOI: 10.1021/acs.jctc.8b01176
   for GFN1-xTB:
   * S. Grimme, C. Bannwarth, P. Shushkov, J. Chem. Theory Comput., 2017,
     13, 1989-2009. DOI: 10.1021/acs.jctc.7b00118
   for GFN0-xTB:
   * P. Pracht, E. Caldeweyher, S. Ehlert, S. Grimme, ChemRxiv, 2019, preprint.
     DOI: 10.26434/chemrxiv.8326202.v1
   for GFN-FF:
   * S. Spicher and S. Grimme, Angew. Chem. Int. Ed., 2020, 59, 15665-15673.
     DOI: 10.1002/anie.202004239
   
   for ALPB and GBSA implicit solvation:
   * S. Ehlert, M. Stahn, S. Spicher, S. Grimme, J. Chem. Theory Comput.,
     2021, 17, 4250-4261. DOI: 10.1021/acs.jctc.1c00471
   
   for ddCOSMO and CPCM-X implicit solvation:
   * M. Stahn, S. Ehlert, S. Grimme, J. Phys. Chem. A,
     2023, XX, XXXX-XXXX. DOI: 10.1021/acs.jpca.3c04382
   
   for DFT-D4:
   * E. Caldeweyher, C. Bannwarth and S. Grimme, J. Chem. Phys., 2017,
     147, 034112. DOI: 10.1063/1.4993215
   * E. Caldeweyher, S. Ehlert, A. Hansen, H. Neugebauer, S. Spicher,
     C. Bannwarth and S. Grimme, J. Chem. Phys., 2019, 150, 154122.
     DOI: 10.1063/1.5090222
   * E. Caldeweyher, J.-M. Mewes, S. Ehlert and S. Grimme, Phys. Chem. Chem. Phys.
     2020, 22, 8499-8512. DOI: 10.1039/D0CP00502A
   
   for sTDA-xTB:
   * S. Grimme and C. Bannwarth, J. Chem. Phys., 2016, 145, 054103.
     DOI: 10.1063/1.4959605
   
   in the mass-spec context:
   * V. Asgeirsson, C. Bauer and S. Grimme, Chem. Sci., 2017, 8, 4879.
     DOI: 10.1039/c7sc00601b
   * J. Koopman and S. Grimme, ACS Omega 2019, 4, 12, 15120-15133.
     DOI: 10.1021/acsomega.9b02011
   
   for metadynamics refer to:
   * S. Grimme, J. Chem. Theory Comput., 2019, 155, 2847-2862
     DOI: 10.1021/acs.jctc.9b00143
   
   for SPH calculations refer to:
   * S. Spicher and S. Grimme, J. Chem. Theory Comput., 2021, 17, 1701-1714
     DOI: 10.1021/acs.jctc.0c01306
   
   for ONIOM refer to:
   * C. Plett, A. Katbashev, S. Ehlert, S. Grimme, M. Bursch,
     Phys. Chem. Chem. Phys., 2023, 25, 17860-17868. DOI: 10.1039/D3CP02178E
   
   for DIPRO refer to:
   * J. Kohn, N. Gildemeister, S. Grimme, D. Fazzi, A. Hansen,
     J. Chem. Phys., 2023, just accepted.
   
   for PTB refer to:
   * S. Grimme, M. Mueller, A. Hansen, J. Chem. Phys., 2023, 158, 124111.
     DOI: 10.1063/5.0137838
   
   with help from (in alphabetical order)
   P. Atkinson, C. Bannwarth, F. Bohle, G. Brandenburg, E. Caldeweyher
   M. Checinski, S. Dohm, S. Ehlert, S. Ehrlich, I. Gerasimov, C. Hölzer
   A. Katbashev, J. Kohn, J. Koopman, C. Lavigne, S. Lehtola, F. März, M. Müller,
   F. Musil, H. Neugebauer, J. Pisarek, C. Plett, P. Pracht, F. Pultar,
   J. Seibert, P. Shushkov, S. Spicher, M. Stahn, M. Steiner, T. Strunk,
   J. Stückrath, T. Rose, and J. Unsleber
   
 * started run on 2026/06/19 at 18:52:59.557     
   ID    Z sym.   atoms
    1    6 C      1-11, 13, 18, 20, 22-25, 29, 31, 33, 34, 36-41, 43-50,
                  53-57, 59, 64-75, 77-83
    2    8 O      12, 14-17, 19, 21, 26-28, 30, 32, 35, 42, 51, 52, 58,
                  60-63, 76
    3    1 H      84-157

           -------------------------------------------------
          |                Calculation Setup                |
           -------------------------------------------------

          program call               : xtb PAPU-0088/conf02.xyz --gfn 2 --alpb water --chrg 0 --uhf 0 --namespace PAPU-0088/conf02_water
          hostname                   : cpu10
          calculation namespace      : PAPU-0088/conf02_water
          coordinate file            : PAPU-0088/conf02.xyz
          omp threads                :                    16


           -------------------------------------------------
          |                 G F N 2 - x T B                 |
           -------------------------------------------------

        Reference                      10.1021/acs.jctc.8b01176
      * Hamiltonian:
        H0-scaling (s, p, d)           1.850000    2.230000    2.230000
        zeta-weighting                 0.500000
      * Dispersion:
        s8                             2.700000
        a1                             0.520000
        a2                             5.000000
        s9                             5.000000
      * Repulsion:
        kExp                           1.500000    1.000000
        rExp                           1.000000
      * Coulomb:
        alpha                          2.000000
        third order                    shell-resolved
        anisotropic                    true
        a3                             3.000000
        a5                             4.000000
        cn-shift                       1.200000
        cn-exp                         4.000000
        max-rad                        5.000000

      * Solvation model:               ALPB
        Solvent                        water
        Parameter file                 internal GFN2-xTB/ALPB
        Dielectric constant                8.0200E+01
        Reference state                gsolv [1 M gas/solution]
        Free energy shift                  1.0808E-03 Eh       6.7819E-01 kcal/mol
        Temperature                        2.9815E+02 K
        Density                            1.0000E+00 kg/L
        Solvent mass                       1.8000E+01 g/mol
        Interaction kernel             P16
        Born radius scaling (c1)           1.4744E+00
        Born radii integrator          GBOBC
        Born offset                        0.0000E+00 a0       0.0000E+00 AA
        H-bond correction              true
        Ion screening                  false
        Surface tension                    1.0000E-05 Eh       1.5569E+01 dyn/cm
        Grid points                               230 per atom

          ...................................................
          :                      SETUP                      :
          :.................................................:
          :  # basis functions                 406          :
          :  # atomic orbitals                 406          :
          :  # shells                          240          :
          :  # electrons                       450          :
          :  max. iterations                   250          :
          :  Hamiltonian                  GFN2-xTB          :
          :  restarted?                      false          :
          :  GBSA solvation                   true          :
          :  PC potential                    false          :
          :  electronic temp.          300.0000000     K    :
          :  accuracy                    1.0000000          :
          :  -> integral cutoff          0.2500000E+02      :
          :  -> integral neglect         0.1000000E-07      :
          :  -> SCF convergence          0.1000000E-05 Eh   :
          :  -> wf. convergence          0.1000000E-03 e    :
          :  Broyden damping             0.4000000          :
          :  net charge                          0          :
          :  unpaired electrons                  0          :
          ...................................................

 iter      E             dE          RMSdq      gap      omega  full diag
   1   -260.5502600 -0.260550E+03  0.460E+00    2.32       0.0  T
   2   -260.7927882 -0.242528E+00  0.254E+00    1.89       1.0  T
   3   -260.7737084  0.190797E-01  0.995E-01    1.84       1.0  T
   4   -260.8160869 -0.423784E-01  0.310E-01    1.58       1.0  T
   5   -260.8220052 -0.591838E-02  0.135E-01    1.59       1.0  T
   6   -260.8228412 -0.835982E-03  0.708E-02    1.60       1.0  T
   7   -260.8230376 -0.196396E-03  0.342E-02    1.61       1.0  T
   8   -260.8230910 -0.533406E-04  0.150E-02    1.61       1.0  T
   9   -260.8231000 -0.899983E-05  0.748E-03    1.60       1.1  T
  10   -260.8231017 -0.177027E-05  0.458E-03    1.60       1.7  T
  11   -260.8231029 -0.115236E-05  0.231E-03    1.60       3.5  T
  12   -260.8231031 -0.213815E-06  0.885E-04    1.60       9.0  T
  13   -260.8231031 -0.456382E-07  0.420E-04    1.60      19.0  T

   *** convergence criteria satisfied after 13 iterations ***

         #    Occupation            Energy/Eh            Energy/eV
      -------------------------------------------------------------
         1        2.0000           -0.7766955             -21.1350
       ...           ...                  ...                  ...
       219        2.0000           -0.4026337             -10.9562
       220        2.0000           -0.4014212             -10.9232
       221        2.0000           -0.3978970             -10.8273
       222        2.0000           -0.3962486             -10.7825
       223        2.0000           -0.3829962             -10.4219
       224        2.0000           -0.3773558             -10.2684
       225        2.0000           -0.3733344             -10.1589 (HOMO)
       226                         -0.3145343              -8.5589 (LUMO)
       227                         -0.2882058              -7.8425
       228                         -0.2404309              -6.5425
       229                         -0.2332638              -6.3474
       230                         -0.2317836              -6.3072
       ...                                ...                  ...
       406                          0.6911825              18.8080
      -------------------------------------------------------------
                  HL-Gap            0.0588000 Eh            1.6000 eV
             Fermi-level           -0.3439343 Eh           -9.3589 eV

 SCC (total)                   0 d,  0 h,  0 min,  0.292 sec
 SCC setup                      ...        0 min,  0.004 sec (  1.202%)
 Dispersion                     ...        0 min,  0.004 sec (  1.471%)
 classical contributions        ...        0 min,  0.000 sec (  0.045%)
 integral evaluation            ...        0 min,  0.014 sec (  4.626%)
 iterations                     ...        0 min,  0.224 sec ( 76.626%)
 molecular gradient             ...        0 min,  0.044 sec ( 15.058%)
 printout                       ...        0 min,  0.003 sec (  0.958%)

         :::::::::::::::::::::::::::::::::::::::::::::::::::::
         ::                     SUMMARY                     ::
         :::::::::::::::::::::::::::::::::::::::::::::::::::::
         :: total energy            -257.851009367722 Eh    ::
         :: total w/o Gsasa/hb      -257.805574138007 Eh    ::
         :: gradient norm              0.131041482554 Eh/a0 ::
         :: HOMO-LUMO gap              1.600030524406 eV    ::
         ::.................................................::
         :: SCC energy              -260.803867819012 Eh    ::
         :: -> isotropic ES            0.578427456878 Eh    ::
         :: -> anisotropic ES         -0.027263757256 Eh    ::
         :: -> anisotropic XC          0.030251328595 Eh    ::
         :: -> dispersion             -0.228176165912 Eh    ::
         :: -> Gsolv                  -0.106386042561 Eh    ::
         ::    -> Gelec               -0.060950812846 Eh    ::
         ::    -> Gsasa                0.007510212783 Eh    ::
         ::    -> Ghb                 -0.054026202197 Eh    ::
         ::    -> Gshift               0.001080759698 Eh    ::
         :: repulsion energy           2.952858451290 Eh    ::
         :: add. restraining           0.000000000000 Eh    ::
         :: total charge              -0.000000000000 e     ::
         :::::::::::::::::::::::::::::::::::::::::::::::::::::

           -------------------------------------------------
          |                Property Printout                |
           -------------------------------------------------

    * Orbital Energies and Occupations

         #    Occupation            Energy/Eh            Energy/eV
      -------------------------------------------------------------
         1        2.0000           -0.7766955             -21.1350
       ...           ...                  ...                  ...
       213        2.0000           -0.4129456             -11.2368
       214        2.0000           -0.4099688             -11.1558
       215        2.0000           -0.4087815             -11.1235
       216        2.0000           -0.4083291             -11.1112
       217        2.0000           -0.4073866             -11.0856
       218        2.0000           -0.4047844             -11.0147
       219        2.0000           -0.4026337             -10.9562
       220        2.0000           -0.4014212             -10.9232
       221        2.0000           -0.3978970             -10.8273
       222        2.0000           -0.3962486             -10.7825
       223        2.0000           -0.3829962             -10.4219
       224        2.0000           -0.3773558             -10.2684
       225        2.0000           -0.3733344             -10.1589 (HOMO)
       226                         -0.3145343              -8.5589 (LUMO)
       227                         -0.2882058              -7.8425
       228                         -0.2404309              -6.5425
       229                         -0.2332638              -6.3474
       230                         -0.2317836              -6.3072
       231                         -0.2311860              -6.2909
       232                         -0.2282446              -6.2109
       233                         -0.2239072              -6.0928
       234                         -0.2232606              -6.0752
       235                         -0.2209049              -6.0111
       236                         -0.2196252              -5.9763
       ...                                ...                  ...
       406                          0.6911825              18.8080
      -------------------------------------------------------------
                  HL-Gap            0.0588000 Eh            1.6000 eV
             Fermi-level           -0.3439343 Eh           -9.3589 eV

     #   Z          covCN         q      C6AA      α(0)
     1   6 C        2.841     0.140    24.950     8.186
     2   6 C        2.973    -0.029    28.716     8.790
     3   6 C        2.965     0.009    27.805     8.649
     4   6 C        2.929    -0.071    29.759     8.946
     5   6 C        2.839     0.148    24.777     8.157
     6   6 C        2.920    -0.110    30.795     9.100
     7   6 C        3.746     0.106    18.911     6.203
     8   6 C        3.720     0.096    19.106     6.243
     9   6 C        3.752     0.111    18.815     6.186
    10   6 C        3.741     0.095    19.082     6.233
    11   6 C        3.742     0.090    19.159     6.245
    12   8 O        1.695    -0.349    19.881     6.020
    13   6 C        3.682     0.077    19.490     6.322
    14   8 O        1.653    -0.512    23.146     6.495
    15   8 O        1.651    -0.474    22.351     6.382
    16   8 O        1.698    -0.332    19.559     5.971
    17   8 O        1.702    -0.296    18.924     5.873
    18   6 C        3.675     0.078    19.504     6.328
    19   8 O        1.654    -0.492    22.711     6.433
    20   6 C        3.641     0.250    17.050     5.937
    21   8 O        1.696    -0.357    20.027     6.042
    22   6 C        3.753     0.115    18.755     6.176
    23   6 C        3.722     0.095    19.120     6.245
    24   6 C        3.722     0.090    19.191     6.256
    25   6 C        3.753     0.087    19.199     6.248
    26   8 O        1.654    -0.489    22.655     6.425
    27   8 O        1.699    -0.322    19.388     5.945
    28   8 O        1.653    -0.493    22.734     6.437
    29   6 C        3.736     0.072    19.464     6.296
    30   8 O        1.703    -0.278    18.605     5.824
    31   6 C        2.757     0.346    21.120     7.526
    32   8 O        0.857    -0.481    23.358     6.480
    33   6 C        2.727     0.357    20.943     7.492
    34   6 C        2.897    -0.088    30.205     9.011
    35   8 O        0.858    -0.497    23.721     6.530
    36   6 C        2.903     0.003    27.946     8.668
    37   6 C        2.899    -0.038    28.943     8.821
    38   6 C        2.895    -0.011    28.295     8.721
    39   6 C        3.806    -0.080    22.028     6.681
    40   6 C        3.728     0.120    18.712     6.176
    41   6 C        2.894    -0.064    29.600     8.920
    42   8 O        1.652    -0.505    23.004     6.475
    43   6 C        2.897    -0.040    28.989     8.828
    44   6 C        2.898    -0.049    29.208     8.861
    45   6 C        2.896    -0.036    28.903     8.815
    46   6 C        3.805    -0.057    21.594     6.615
    47   6 C        3.802    -0.048    21.438     6.592
    48   6 C        3.800    -0.063    21.705     6.633
    49   6 C        3.799    -0.053    21.528     6.606
    50   6 C        3.750    -0.103    22.527     6.769
    51   8 O        1.656    -0.449    21.829     6.307
    52   8 O        1.657    -0.448    21.794     6.302
    53   6 C        3.658     0.241    17.121     5.939
    54   6 C        3.723     0.088    19.224     6.261
    55   6 C        3.723     0.097    19.074     6.237
    56   6 C        3.722     0.095    19.116     6.244
    57   6 C        3.746     0.110    18.843     6.192
    58   8 O        1.695    -0.380    20.453     6.106
    59   6 C        3.673     0.073    19.582     6.342
    60   8 O        1.653    -0.494    22.764     6.441
    61   8 O        1.654    -0.487    22.618     6.420
    62   8 O        1.653    -0.491    22.705     6.432
    63   8 O        1.652    -0.464    22.134     6.351
    64   6 C        2.975    -0.030    28.740     8.794
    65   6 C        2.925    -0.019    28.479     8.752
    66   6 C        2.925    -0.032    28.804     8.801
    67   6 C        2.976     0.027    27.400     8.586
    68   6 C        2.928    -0.027    28.669     8.781
    69   6 C        2.926    -0.025    28.633     8.775
    70   6 C        2.976     0.002    27.979     8.677
    71   6 C        2.923    -0.030    28.753     8.793
    72   6 C        2.919    -0.059    29.459     8.900
    73   6 C        2.861     0.139    24.957     8.188
    74   6 C        2.920    -0.053    29.305     8.877
    75   6 C        2.923    -0.034    28.847     8.808
    76   8 O        1.700    -0.310    19.178     5.913
    77   6 C        3.702     0.071    19.542     6.321
    78   6 C        2.971    -0.000    28.028     8.684
    79   6 C        2.929    -0.043    29.061     8.841
    80   6 C        2.922    -0.031    28.773     8.796
    81   6 C        2.925    -0.034    28.843     8.807
    82   6 C        2.922    -0.032    28.810     8.802
    83   6 C        2.930    -0.033    28.815     8.803
    84   1 H        0.926     0.068     2.108     2.270
    85   1 H        0.926     0.073     2.057     2.243
    86   1 H        0.924     0.043     2.406     2.426
    87   1 H        0.923     0.065     2.145     2.290
    88   1 H        0.924     0.023     2.690     2.565
    89   1 H        0.923     0.084     1.940     2.178
    90   1 H        0.924     0.050     2.316     2.380
    91   1 H        0.924     0.039     2.457     2.451
    92   1 H        0.924     0.034     2.532     2.488
    93   1 H        0.804     0.363     0.558     1.174
    94   1 H        0.802     0.316     0.675     1.290
    95   1 H        0.924     0.046     2.366     2.405
    96   1 H        0.924     0.063     2.168     2.303
    97   1 H        0.803     0.365     0.556     1.171
    98   1 H        0.924    -0.003     3.112     2.759
    99   1 H        0.923     0.023     2.689     2.564
   100   1 H        0.923     0.051     2.314     2.379
   101   1 H        0.923     0.052     2.291     2.367
   102   1 H        0.924     0.096     1.818     2.109
   103   1 H        0.804     0.375     0.533     1.146
   104   1 H        0.803     0.381     0.522     1.135
   105   1 H        0.924     0.104     1.750     2.069
   106   1 H        0.924     0.081     1.971     2.195
   107   1 H        0.926     0.084     1.933     2.174
   108   1 H        0.926     0.080     1.982     2.201
   109   1 H        0.926     0.073     2.053     2.241
   110   1 H        0.926     0.072     2.066     2.248
   111   1 H        0.924     0.066     2.129     2.282
   112   1 H        0.924     0.079     1.991     2.206
   113   1 H        0.923     0.053     2.287     2.365
   114   1 H        0.926     0.056     2.252     2.347
   115   1 H        0.804     0.352     0.584     1.201
   116   1 H        0.926     0.030     2.585     2.514
   117   1 H        0.926     0.043     2.408     2.427
   118   1 H        0.926     0.017     2.776     2.605
   119   1 H        0.924     0.037     2.483     2.464
   120   1 H        0.924     0.033     2.541     2.493
   121   1 H        0.924     0.026     2.638     2.540
   122   1 H        0.924     0.026     2.641     2.541
   123   1 H        0.924     0.037     2.485     2.465
   124   1 H        0.924     0.031     2.571     2.508
   125   1 H        0.924     0.021     2.715     2.577
   126   1 H        0.923     0.035     2.513     2.479
   127   1 H        0.924     0.034     2.525     2.485
   128   1 H        0.924     0.032     2.551     2.498
   129   1 H        0.924     0.036     2.507     2.476
   130   1 H        0.804     0.377     0.529     1.142
   131   1 H        0.804     0.380     0.524     1.137
   132   1 H        0.923     0.004     2.998     2.708
   133   1 H        0.923     0.061     2.184     2.311
   134   1 H        0.923     0.031     2.579     2.511
   135   1 H        0.923     0.054     2.268     2.355
   136   1 H        0.924     0.004     2.997     2.707
   137   1 H        0.924     0.086     1.920     2.167
   138   1 H        0.924     0.037     2.490     2.468
   139   1 H        0.803     0.380     0.522     1.135
   140   1 H        0.804     0.381     0.521     1.134
   141   1 H        0.804     0.371     0.542     1.156
   142   1 H        0.802     0.321     0.662     1.278
   143   1 H        0.926     0.061     2.192     2.315
   144   1 H        0.926     0.061     2.185     2.312
   145   1 H        0.926     0.067     2.114     2.274
   146   1 H        0.926     0.061     2.188     2.313
   147   1 H        0.926     0.042     2.419     2.432
   148   1 H        0.926     0.047     2.358     2.401
   149   1 H        0.926     0.060     2.201     2.320
   150   1 H        0.926     0.055     2.258     2.350
   151   1 H        0.924     0.043     2.416     2.431
   152   1 H        0.924     0.069     2.099     2.266
   153   1 H        0.926     0.034     2.537     2.491
   154   1 H        0.926     0.046     2.369     2.407
   155   1 H        0.926     0.040     2.453     2.449
   156   1 H        0.926     0.039     2.464     2.455
   157   1 H        0.926     0.038     2.476     2.461

 Mol. C6AA /au·bohr⁶  :     253842.598818
 Mol. C8AA /au·bohr⁸  :    5870064.037506
 Mol. α(0) /au        :        765.670402


Wiberg/Mayer (AO) data.
largest (>0.10) Wiberg bond orders for each atom

 ---------------------------------------------------------------------------
     #   Z sym  total        # sym  WBO       # sym  WBO       # sym  WBO
 ---------------------------------------------------------------------------
     1   6 C    3.942 --     6 C    1.390     2 C    1.337    51 O    1.067
     2   6 C    3.975 --     3 C    1.392     1 C    1.337     7 C    0.992
     3   6 C    3.988 --     4 C    1.430     2 C    1.392    13 C    1.002
     4   6 C    3.984 --     3 C    1.430     5 C    1.358    84 H    0.964
     5   6 C    3.945 --     6 C    1.377     4 C    1.358    52 O    1.079
     6   6 C    3.974 --     1 C    1.390     5 C    1.377    85 H    0.959
     7   6 C    3.937 --     2 C    0.992    86 H    0.951     8 C    0.951
                            12 O    0.947
     8   6 C    3.949 --    15 O    0.994     9 C    0.962     7 C    0.951
                            87 H    0.947
     9   6 C    3.929 --    10 C    0.969     8 C    0.962    88 H    0.954
                            17 O    0.939
    10   6 C    3.933 --     9 C    0.969    16 O    0.961    11 C    0.959
                            89 H    0.952
    11   6 C    3.945 --    18 C    0.982    12 O    0.968    10 C    0.959
                            90 H    0.948
    12   8 O    2.061 --    11 C    0.968     7 C    0.947
    13   6 C    3.954 --     3 C    1.002    14 O    0.980    91 H    0.967
                            92 H    0.961
    14   8 O    1.913 --    13 C    0.980    93 H    0.853
    15   8 O    1.938 --     8 C    0.994    94 H    0.844
    16   8 O    2.086 --    20 C    0.984    10 C    0.961
    17   8 O    2.264 --    33 C    1.089     9 C    0.939    35 O    0.141
    18   6 C    3.959 --    19 O    1.011    11 C    0.982    96 H    0.968
                            95 H    0.966
    19   8 O    1.919 --    18 C    1.011    97 H    0.847
    20   6 C    3.927 --    16 O    0.984    21 O    0.958    25 C    0.953
                            98 H    0.938
    21   8 O    2.059 --    20 C    0.958    22 C    0.949
    22   6 C    3.939 --    29 C    0.984    23 C    0.969    21 O    0.949
                            99 H    0.948
    23   6 C    3.967 --    28 O    1.008    22 C    0.969    24 C    0.967
                           100 H    0.957
    24   6 C    3.962 --    26 O    1.002    23 C    0.967    25 C    0.962
                           101 H    0.952
    25   6 C    3.934 --    27 O    0.963    24 C    0.962    20 C    0.953
                           102 H    0.952
    26   8 O    1.925 --    24 C    1.002   103 H    0.842
    27   8 O    2.087 --    53 C    0.984    25 C    0.963
    28   8 O    1.914 --    23 C    1.008   104 H    0.833
    29   6 C    3.926 --    22 C    0.984   105 H    0.962   106 H    0.960
                            30 O    0.960
    30   8 O    2.272 --    31 C    1.087    29 C    0.960    32 O    0.147
    31   6 C    3.892 --    32 O    1.670    30 O    1.087    64 C    1.039
    32   8 O    1.974 --    31 C    1.670    30 O    0.147
    33   6 C    3.891 --    35 O    1.587    17 O    1.089    34 C    1.088
    34   6 C    3.964 --    36 C    1.688    33 C    1.088   107 H    0.958
                            38 C    0.110
    35   8 O    1.978 --    33 C    1.587    17 O    0.141
    36   6 C    3.969 --    34 C    1.688    37 C    1.171   108 H    0.950
    37   6 C    3.984 --    38 C    1.755    36 C    1.171   109 H    0.958
    38   6 C    3.968 --    37 C    1.755    39 C    1.048   110 H    0.961
                            34 C    0.110
    39   6 C    3.983 --    38 C    1.048   111 H    0.968   112 H    0.960
                            40 C    0.930
    40   6 C    3.941 --    41 C    1.008    42 O    0.987   113 H    0.955
                            39 C    0.930
    41   6 C    3.977 --    43 C    1.843    40 C    1.008   114 H    0.962
                            45 C    0.108
    42   8 O    1.925 --    40 C    0.987   115 H    0.860
    43   6 C    3.991 --    41 C    1.843    44 C    1.107   116 H    0.960
    44   6 C    3.988 --    45 C    1.844    43 C    1.107   117 H    0.957
    45   6 C    3.985 --    44 C    1.844    46 C    1.030   118 H    0.964
                            41 C    0.108
    46   6 C    3.996 --    45 C    1.030    47 C    0.983   119 H    0.972
                           120 H    0.966
    47   6 C    3.988 --    48 C    1.006    46 C    0.983   122 H    0.974
                           121 H    0.972
    48   6 C    3.994 --    47 C    1.006    49 C    1.006   124 H    0.976
                           123 H    0.969
    49   6 C    3.996 --    50 C    1.021    48 C    1.006   125 H    0.977
                           126 H    0.974
    50   6 C    3.996 --    49 C    1.021   128 H    0.987   127 H    0.987
                           129 H    0.980
    51   8 O    2.077 --     1 C    1.067   130 H    0.837
    52   8 O    2.077 --     5 C    1.079   131 H    0.837
    53   6 C    3.917 --    27 O    0.984    54 C    0.956    58 O    0.948
                           132 H    0.943
    54   6 C    3.959 --    62 O    1.001    55 C    0.968    53 C    0.956
                           133 H    0.955
    55   6 C    3.967 --    61 O    1.005    54 C    0.968    56 C    0.966
                           134 H    0.957
    56   6 C    3.966 --    60 O    1.008    57 C    0.968    55 C    0.966
                           135 H    0.951
    57   6 C    3.933 --    59 C    0.978    56 C    0.968    58 O    0.947
                           136 H    0.942
    58   8 O    2.048 --    53 C    0.948    57 C    0.947
    59   6 C    3.955 --    63 O    1.010    57 C    0.978   137 H    0.966
                           138 H    0.962
    60   8 O    1.915 --    56 C    1.008   139 H    0.833
    61   8 O    1.925 --    55 C    1.005   140 H    0.838
    62   8 O    1.918 --    54 C    1.001   141 H    0.844
    63   8 O    1.942 --    59 C    1.010   142 H    0.847
    64   6 C    3.974 --    69 C    1.361    65 C    1.360    31 C    1.039
    65   6 C    3.986 --    66 C    1.476    64 C    1.360   143 H    0.962
    66   6 C    3.986 --    65 C    1.476    67 C    1.369   144 H    0.965
    67   6 C    3.984 --    66 C    1.369    68 C    1.366    70 C    1.061
    68   6 C    3.985 --    69 C    1.477    67 C    1.366   145 H    0.959
    69   6 C    3.987 --    68 C    1.477    64 C    1.361   146 H    0.957
    70   6 C    3.985 --    71 C    1.375    75 C    1.367    67 C    1.061
    71   6 C    3.987 --    72 C    1.465    70 C    1.375   147 H    0.965
                            74 C    0.100
    72   6 C    3.988 --    71 C    1.465    73 C    1.367   148 H    0.961
    73   6 C    3.924 --    72 C    1.367    74 C    1.356    76 O    1.038
    74   6 C    3.986 --    75 C    1.479    73 C    1.356   149 H    0.966
                            71 C    0.100
    75   6 C    3.986 --    74 C    1.479    70 C    1.367   150 H    0.965
    76   8 O    2.181 --    73 C    1.038    77 C    0.959
    77   6 C    3.939 --    78 C    1.000   151 H    0.965    76 O    0.959
                           152 H    0.951
    78   6 C    3.987 --    83 C    1.415    79 C    1.409    77 C    1.000
                            81 C    0.109
    79   6 C    3.991 --    80 C    1.446    78 C    1.409   153 H    0.969
                            82 C    0.112
    80   6 C    3.992 --    79 C    1.446    81 C    1.436   154 H    0.969
                            83 C    0.111
    81   6 C    3.992 --    82 C    1.439    80 C    1.436   155 H    0.970
                            78 C    0.109
    82   6 C    3.992 --    83 C    1.442    81 C    1.439   156 H    0.970
                            79 C    0.112
    83   6 C    3.992 --    82 C    1.442    78 C    1.415   157 H    0.967
                            80 C    0.111
    84   1 H    0.995 --     4 C    0.964
    85   1 H    0.994 --     6 C    0.959
    86   1 H    0.998 --     7 C    0.951
    87   1 H    0.996 --     8 C    0.947
    88   1 H    0.999 --     9 C    0.954
    89   1 H    0.992 --    10 C    0.952
    90   1 H    0.997 --    11 C    0.948
    91   1 H    0.998 --    13 C    0.967
    92   1 H    0.999 --    13 C    0.961
    93   1 H    0.867 --    14 O    0.853
    94   1 H    0.900 --    15 O    0.844
    95   1 H    0.998 --    18 C    0.966
    96   1 H    0.995 --    18 C    0.968
    97   1 H    0.867 --    19 O    0.847
    98   1 H    1.000 --    20 C    0.938
    99   1 H    0.999 --    22 C    0.948
   100   1 H    0.997 --    23 C    0.957
   101   1 H    0.997 --    24 C    0.952
   102   1 H    0.990 --    25 C    0.952
   103   1 H    0.859 --    26 O    0.842
   104   1 H    0.855 --    28 O    0.833
   105   1 H    0.989 --    29 C    0.962
   106   1 H    0.992 --    29 C    0.960
   107   1 H    0.993 --    34 C    0.958
   108   1 H    0.994 --    36 C    0.950
   109   1 H    0.995 --    37 C    0.958
   110   1 H    0.995 --    38 C    0.961
   111   1 H    0.995 --    39 C    0.968
   112   1 H    0.989 --    39 C    0.960
   113   1 H    0.997 --    40 C    0.955
   114   1 H    0.997 --    41 C    0.962
   115   1 H    0.876 --    42 O    0.860
   116   1 H    0.999 --    43 C    0.960
   117   1 H    0.998 --    44 C    0.957
   118   1 H    1.000 --    45 C    0.964
   119   1 H    0.998 --    46 C    0.972
   120   1 H    0.997 --    46 C    0.966
   121   1 H    0.999 --    47 C    0.972
   122   1 H    0.999 --    47 C    0.974
   123   1 H    0.999 --    48 C    0.969
   124   1 H    0.999 --    48 C    0.976
   125   1 H    1.000 --    49 C    0.977
   126   1 H    0.998 --    49 C    0.974
   127   1 H    0.999 --    50 C    0.987
   128   1 H    0.999 --    50 C    0.987
   129   1 H    0.999 --    50 C    0.980
   130   1 H    0.857 --    51 O    0.837
   131   1 H    0.855 --    52 O    0.837
   132   1 H    1.000 --    53 C    0.943
   133   1 H    0.996 --    54 C    0.955
   134   1 H    0.999 --    55 C    0.957
   135   1 H    0.997 --    56 C    0.951
   136   1 H    1.000 --    57 C    0.942
   137   1 H    0.992 --    59 C    0.966
   138   1 H    0.998 --    59 C    0.962
   139   1 H    0.855 --    60 O    0.833
   140   1 H    0.855 --    61 O    0.838
   141   1 H    0.862 --    62 O    0.844
   142   1 H    0.897 --    63 O    0.847
   143   1 H    0.996 --    65 C    0.962
   144   1 H    0.996 --    66 C    0.965
   145   1 H    0.995 --    68 C    0.959
   146   1 H    0.996 --    69 C    0.957
   147   1 H    0.998 --    71 C    0.965
   148   1 H    0.997 --    72 C    0.961
   149   1 H    0.996 --    74 C    0.966
   150   1 H    0.996 --    75 C    0.965
   151   1 H    0.998 --    77 C    0.965
   152   1 H    0.994 --    77 C    0.951
   153   1 H    0.999 --    79 C    0.969
   154   1 H    0.998 --    80 C    0.969
   155   1 H    0.998 --    81 C    0.970
   156   1 H    0.998 --    82 C    0.970
   157   1 H    0.999 --    83 C    0.967
 ---------------------------------------------------------------------------

Topologies differ in total number of bonds
Writing topology from bond orders to xtbtopo.mol

molecular dipole:
                 x           y           z       tot (Debye)
 q only:       -2.684      -1.261      -2.071
   full:       -2.214      -1.294      -2.325       8.797
molecular quadrupole (traceless):
                xx          xy          yy          xz          yz          zz
 q only:      -29.137     -16.923      45.217     -26.711      44.588     -16.080
  q+dip:      -39.045     -24.032      38.337     -24.118      51.103       0.707
   full:      -35.601     -23.462      36.136     -28.130      52.881      -0.534


           -------------------------------------------------
          | TOTAL ENERGY             -257.851009367722 Eh   |
          | GRADIENT NORM               0.131041482554 Eh/α |
          | HOMO-LUMO GAP               1.600030524406 eV   |
           -------------------------------------------------

------------------------------------------------------------------------
 * finished run on 2026/06/19 at 18:52:59.905     
------------------------------------------------------------------------
 total:
 * wall-time:     0 d,  0 h,  0 min,  0.347 sec
 *  cpu-time:     0 d,  0 h,  0 min,  5.345 sec
 * ratio c/w:    15.413 speedup
 SCF:
 * wall-time:     0 d,  0 h,  0 min,  0.293 sec
 *  cpu-time:     0 d,  0 h,  0 min,  4.645 sec
 * ratio c/w:    15.864 speedup

normal termination of xtb
