      -----------------------------------------------------------      
     |                   =====================                   |     
     |                           x T B                           |     
     |                   =====================                   |     
     |                         S. Grimme                         |     
     |          Mulliken Center for Theoretical Chemistry        |     
     |                    University of Bonn                     |     
      -----------------------------------------------------------      

   * xtb version 6.7.1 (edcfbbe) compiled by 'albert@albert-system' on 2024-07-22

   xtb is free software: you can redistribute it and/or modify it under
   the terms of the GNU Lesser General Public License as published by
   the Free Software Foundation, either version 3 of the License, or
   (at your option) any later version.
   
   xtb is distributed in the hope that it will be useful,
   but WITHOUT ANY WARRANTY; without even the implied warranty of
   MERCHANTABILITY or FITNESS FOR A PARTICULAR PURPOSE.  See the
   GNU Lesser General Public License for more details.
   
   Cite this work as:
   * C. Bannwarth, E. Caldeweyher, S. Ehlert, A. Hansen, P. Pracht,
     J. Seibert, S. Spicher, S. Grimme, WIREs Comput. Mol. Sci., 2020, 11,
     e01493. DOI: 10.1002/wcms.1493
   
   for GFN2-xTB:
   * C. Bannwarth, S. Ehlert and S. Grimme., J. Chem. Theory Comput., 2019,
     15, 1652-1671. DOI: 10.1021/acs.jctc.8b01176
   for GFN1-xTB:
   * S. Grimme, C. Bannwarth, P. Shushkov, J. Chem. Theory Comput., 2017,
     13, 1989-2009. DOI: 10.1021/acs.jctc.7b00118
   for GFN0-xTB:
   * P. Pracht, E. Caldeweyher, S. Ehlert, S. Grimme, ChemRxiv, 2019, preprint.
     DOI: 10.26434/chemrxiv.8326202.v1
   for GFN-FF:
   * S. Spicher and S. Grimme, Angew. Chem. Int. Ed., 2020, 59, 15665-15673.
     DOI: 10.1002/anie.202004239
   
   for ALPB and GBSA implicit solvation:
   * S. Ehlert, M. Stahn, S. Spicher, S. Grimme, J. Chem. Theory Comput.,
     2021, 17, 4250-4261. DOI: 10.1021/acs.jctc.1c00471
   
   for ddCOSMO and CPCM-X implicit solvation:
   * M. Stahn, S. Ehlert, S. Grimme, J. Phys. Chem. A,
     2023, XX, XXXX-XXXX. DOI: 10.1021/acs.jpca.3c04382
   
   for DFT-D4:
   * E. Caldeweyher, C. Bannwarth and S. Grimme, J. Chem. Phys., 2017,
     147, 034112. DOI: 10.1063/1.4993215
   * E. Caldeweyher, S. Ehlert, A. Hansen, H. Neugebauer, S. Spicher,
     C. Bannwarth and S. Grimme, J. Chem. Phys., 2019, 150, 154122.
     DOI: 10.1063/1.5090222
   * E. Caldeweyher, J.-M. Mewes, S. Ehlert and S. Grimme, Phys. Chem. Chem. Phys.
     2020, 22, 8499-8512. DOI: 10.1039/D0CP00502A
   
   for sTDA-xTB:
   * S. Grimme and C. Bannwarth, J. Chem. Phys., 2016, 145, 054103.
     DOI: 10.1063/1.4959605
   
   in the mass-spec context:
   * V. Asgeirsson, C. Bauer and S. Grimme, Chem. Sci., 2017, 8, 4879.
     DOI: 10.1039/c7sc00601b
   * J. Koopman and S. Grimme, ACS Omega 2019, 4, 12, 15120-15133.
     DOI: 10.1021/acsomega.9b02011
   
   for metadynamics refer to:
   * S. Grimme, J. Chem. Theory Comput., 2019, 155, 2847-2862
     DOI: 10.1021/acs.jctc.9b00143
   
   for SPH calculations refer to:
   * S. Spicher and S. Grimme, J. Chem. Theory Comput., 2021, 17, 1701-1714
     DOI: 10.1021/acs.jctc.0c01306
   
   for ONIOM refer to:
   * C. Plett, A. Katbashev, S. Ehlert, S. Grimme, M. Bursch,
     Phys. Chem. Chem. Phys., 2023, 25, 17860-17868. DOI: 10.1039/D3CP02178E
   
   for DIPRO refer to:
   * J. Kohn, N. Gildemeister, S. Grimme, D. Fazzi, A. Hansen,
     J. Chem. Phys., 2023, just accepted.
   
   for PTB refer to:
   * S. Grimme, M. Mueller, A. Hansen, J. Chem. Phys., 2023, 158, 124111.
     DOI: 10.1063/5.0137838
   
   with help from (in alphabetical order)
   P. Atkinson, C. Bannwarth, F. Bohle, G. Brandenburg, E. Caldeweyher
   M. Checinski, S. Dohm, S. Ehlert, S. Ehrlich, I. Gerasimov, C. Hölzer
   A. Katbashev, J. Kohn, J. Koopman, C. Lavigne, S. Lehtola, F. März, M. Müller,
   F. Musil, H. Neugebauer, J. Pisarek, C. Plett, P. Pracht, F. Pultar,
   J. Seibert, P. Shushkov, S. Spicher, M. Stahn, M. Steiner, T. Strunk,
   J. Stückrath, T. Rose, and J. Unsleber
   
 * started run on 2026/06/19 at 18:53:02.121     
   ID    Z sym.   atoms
    1    6 C      1-11, 13, 18, 20, 22-25, 29, 31, 33, 34, 36-41, 43-50,
                  53-57, 59, 64-75, 77-83
    2    8 O      12, 14-17, 19, 21, 26-28, 30, 32, 35, 42, 51, 52, 58,
                  60-63, 76
    3    1 H      84-157

           -------------------------------------------------
          |                Calculation Setup                |
           -------------------------------------------------

          program call               : xtb PAPU-0088/conf05.xyz --gfn 2 --alpb octanol --chrg 0 --uhf 0 --namespace PAPU-0088/conf05_octanol
          hostname                   : cpu10
          calculation namespace      : PAPU-0088/conf05_octanol
          coordinate file            : PAPU-0088/conf05.xyz
          omp threads                :                    16


           -------------------------------------------------
          |                 G F N 2 - x T B                 |
           -------------------------------------------------

        Reference                      10.1021/acs.jctc.8b01176
      * Hamiltonian:
        H0-scaling (s, p, d)           1.850000    2.230000    2.230000
        zeta-weighting                 0.500000
      * Dispersion:
        s8                             2.700000
        a1                             0.520000
        a2                             5.000000
        s9                             5.000000
      * Repulsion:
        kExp                           1.500000    1.000000
        rExp                           1.000000
      * Coulomb:
        alpha                          2.000000
        third order                    shell-resolved
        anisotropic                    true
        a3                             3.000000
        a5                             4.000000
        cn-shift                       1.200000
        cn-exp                         4.000000
        max-rad                        5.000000

      * Solvation model:               ALPB
        Solvent                        octanol
        Parameter file                 internal GFN2-xTB/ALPB
        Dielectric constant                9.8629E+00
        Reference state                gsolv [1 M gas/solution]
        Free energy shift                  2.3397E-03 Eh       1.4682E+00 kcal/mol
        Temperature                        2.9815E+02 K
        Density                            8.3000E-01 kg/L
        Solvent mass                       1.3023E+02 g/mol
        Interaction kernel             P16
        Born radius scaling (c1)           1.5898E+00
        Born radii integrator          GBOBC
        Born offset                        0.0000E+00 a0       0.0000E+00 AA
        H-bond correction              true
        Ion screening                  false
        Surface tension                    1.0000E-05 Eh       1.5569E+01 dyn/cm
        Grid points                               230 per atom

          ...................................................
          :                      SETUP                      :
          :.................................................:
          :  # basis functions                 406          :
          :  # atomic orbitals                 406          :
          :  # shells                          240          :
          :  # electrons                       450          :
          :  max. iterations                   250          :
          :  Hamiltonian                  GFN2-xTB          :
          :  restarted?                      false          :
          :  GBSA solvation                   true          :
          :  PC potential                    false          :
          :  electronic temp.          300.0000000     K    :
          :  accuracy                    1.0000000          :
          :  -> integral cutoff          0.2500000E+02      :
          :  -> integral neglect         0.1000000E-07      :
          :  -> SCF convergence          0.1000000E-05 Eh   :
          :  -> wf. convergence          0.1000000E-03 e    :
          :  Broyden damping             0.4000000          :
          :  net charge                          0          :
          :  unpaired electrons                  0          :
          ...................................................

 iter      E             dE          RMSdq      gap      omega  full diag
   1   -260.5669295 -0.260567E+03  0.457E+00    2.33       0.0  T
   2   -260.8137372 -0.246808E+00  0.253E+00    1.69       1.0  T
   3   -260.7918552  0.218820E-01  0.104E+00    1.72       1.0  T
   4   -260.8381779 -0.463227E-01  0.298E-01    1.49       1.0  T
   5   -260.8440840 -0.590616E-02  0.131E-01    1.50       1.0  T
   6   -260.8452048 -0.112075E-02  0.639E-02    1.51       1.0  T
   7   -260.8453834 -0.178660E-03  0.289E-02    1.52       1.0  T
   8   -260.8454207 -0.372548E-04  0.116E-02    1.52       1.0  T
   9   -260.8454256 -0.494804E-05  0.579E-03    1.52       1.4  T
  10   -260.8454275 -0.190288E-05  0.287E-03    1.52       2.8  T
  11   -260.8454279 -0.341401E-06  0.139E-03    1.52       5.7  T
  12   -260.8454279 -0.455285E-07  0.565E-04    1.52      14.1  T
  13   -260.8454280 -0.178703E-07  0.255E-04    1.52      31.3  T

   *** convergence criteria satisfied after 13 iterations ***

         #    Occupation            Energy/Eh            Energy/eV
      -------------------------------------------------------------
         1        2.0000           -0.7808268             -21.2474
       ...           ...                  ...                  ...
       219        2.0000           -0.4071456             -11.0790
       220        2.0000           -0.4054315             -11.0324
       221        2.0000           -0.4004330             -10.8963
       222        2.0000           -0.3981848             -10.8352
       223        2.0000           -0.3888562             -10.5813
       224        2.0000           -0.3773337             -10.2678
       225        2.0000           -0.3762719             -10.2389 (HOMO)
       226                         -0.3203427              -8.7170 (LUMO)
       227                         -0.2869960              -7.8096
       228                         -0.2438342              -6.6351
       229                         -0.2383749              -6.4865
       230                         -0.2369914              -6.4489
       ...                                ...                  ...
       406                          0.6898614              18.7721
      -------------------------------------------------------------
                  HL-Gap            0.0559292 Eh            1.5219 eV
             Fermi-level           -0.3481663 Eh           -9.4741 eV

 SCC (total)                   0 d,  0 h,  0 min,  0.291 sec
 SCC setup                      ...        0 min,  0.004 sec (  1.279%)
 Dispersion                     ...        0 min,  0.005 sec (  1.791%)
 classical contributions        ...        0 min,  0.000 sec (  0.047%)
 integral evaluation            ...        0 min,  0.013 sec (  4.528%)
 iterations                     ...        0 min,  0.224 sec ( 76.797%)
 molecular gradient             ...        0 min,  0.044 sec ( 15.191%)
 printout                       ...        0 min,  0.001 sec (  0.354%)

         :::::::::::::::::::::::::::::::::::::::::::::::::::::
         ::                     SUMMARY                     ::
         :::::::::::::::::::::::::::::::::::::::::::::::::::::
         :: total energy            -257.871633358459 Eh    ::
         :: total w/o Gsasa/hb      -257.785854284552 Eh    ::
         :: gradient norm              0.126025288427 Eh/a0 ::
         :: HOMO-LUMO gap              1.521910107733 eV    ::
         ::.................................................::
         :: SCC energy              -260.826640314342 Eh    ::
         :: -> isotropic ES            0.561794917565 Eh    ::
         :: -> anisotropic ES         -0.022592437613 Eh    ::
         :: -> anisotropic XC          0.029564324664 Eh    ::
         :: -> dispersion             -0.226006223078 Eh    ::
         :: -> Gsolv                  -0.125303514531 Eh    ::
         ::    -> Gelec               -0.039524440624 Eh    ::
         ::    -> Gsasa               -0.033057503337 Eh    ::
         ::    -> Ghb                 -0.055061239946 Eh    ::
         ::    -> Gshift               0.002339669376 Eh    ::
         :: repulsion energy           2.955006955882 Eh    ::
         :: add. restraining           0.000000000000 Eh    ::
         :: total charge               0.000000000000 e     ::
         :::::::::::::::::::::::::::::::::::::::::::::::::::::

           -------------------------------------------------
          |                Property Printout                |
           -------------------------------------------------

    * Orbital Energies and Occupations

         #    Occupation            Energy/Eh            Energy/eV
      -------------------------------------------------------------
         1        2.0000           -0.7808268             -21.2474
       ...           ...                  ...                  ...
       213        2.0000           -0.4155332             -11.3072
       214        2.0000           -0.4141531             -11.2697
       215        2.0000           -0.4127546             -11.2316
       216        2.0000           -0.4110995             -11.1866
       217        2.0000           -0.4099023             -11.1540
       218        2.0000           -0.4089654             -11.1285
       219        2.0000           -0.4071456             -11.0790
       220        2.0000           -0.4054315             -11.0324
       221        2.0000           -0.4004330             -10.8963
       222        2.0000           -0.3981848             -10.8352
       223        2.0000           -0.3888562             -10.5813
       224        2.0000           -0.3773337             -10.2678
       225        2.0000           -0.3762719             -10.2389 (HOMO)
       226                         -0.3203427              -8.7170 (LUMO)
       227                         -0.2869960              -7.8096
       228                         -0.2438342              -6.6351
       229                         -0.2383749              -6.4865
       230                         -0.2369914              -6.4489
       231                         -0.2320420              -6.3142
       232                         -0.2300250              -6.2593
       233                         -0.2298163              -6.2536
       234                         -0.2257937              -6.1442
       235                         -0.2228792              -6.0649
       236                         -0.2225579              -6.0561
       ...                                ...                  ...
       406                          0.6898614              18.7721
      -------------------------------------------------------------
                  HL-Gap            0.0559292 Eh            1.5219 eV
             Fermi-level           -0.3481663 Eh           -9.4741 eV

     #   Z          covCN         q      C6AA      α(0)
     1   6 C        2.841     0.142    24.908     8.179
     2   6 C        2.973    -0.027    28.681     8.785
     3   6 C        2.965     0.012    27.735     8.638
     4   6 C        2.930    -0.070    29.737     8.943
     5   6 C        2.839     0.152    24.703     8.145
     6   6 C        2.920    -0.117    30.975     9.127
     7   6 C        3.745     0.104    18.934     6.207
     8   6 C        3.720     0.093    19.145     6.249
     9   6 C        3.764     0.110    18.818     6.183
    10   6 C        3.744     0.092    19.117     6.237
    11   6 C        3.742     0.085    19.240     6.258
    12   8 O        1.695    -0.350    19.897     6.022
    13   6 C        3.682     0.077    19.499     6.324
    14   8 O        1.653    -0.495    22.785     6.444
    15   8 O        1.651    -0.475    22.355     6.383
    16   8 O        1.698    -0.327    19.471     5.958
    17   8 O        1.702    -0.297    18.946     5.877
    18   6 C        3.675     0.073    19.581     6.341
    19   8 O        1.654    -0.474    22.344     6.381
    20   6 C        3.645     0.252    17.016     5.929
    21   8 O        1.697    -0.353    19.942     6.029
    22   6 C        3.753     0.114    18.762     6.177
    23   6 C        3.721     0.092    19.167     6.253
    24   6 C        3.721     0.082    19.327     6.279
    25   6 C        3.750     0.083    19.258     6.259
    26   8 O        1.654    -0.481    22.491     6.402
    27   8 O        1.699    -0.323    19.401     5.947
    28   8 O        1.653    -0.481    22.479     6.400
    29   6 C        3.735     0.069    19.514     6.304
    30   8 O        1.703    -0.276    18.580     5.820
    31   6 C        2.757     0.351    21.042     7.512
    32   8 O        0.857    -0.463    22.987     6.428
    33   6 C        2.738     0.355    20.971     7.498
    34   6 C        2.897    -0.095    30.383     9.038
    35   8 O        0.858    -0.485    23.464     6.495
    36   6 C        2.904    -0.002    28.078     8.688
    37   6 C        2.899    -0.043    29.074     8.841
    38   6 C        2.895    -0.014    28.369     8.733
    39   6 C        3.806    -0.083    22.086     6.690
    40   6 C        3.727     0.117    18.756     6.183
    41   6 C        2.894    -0.070    29.734     8.940
    42   8 O        1.652    -0.491    22.703     6.432
    43   6 C        2.897    -0.040    28.986     8.827
    44   6 C        2.898    -0.052    29.290     8.874
    45   6 C        2.895    -0.034    28.841     8.805
    46   6 C        3.805    -0.060    21.643     6.623
    47   6 C        3.802    -0.050    21.477     6.598
    48   6 C        3.800    -0.064    21.738     6.638
    49   6 C        3.799    -0.049    21.451     6.594
    50   6 C        3.751    -0.110    22.671     6.790
    51   8 O        1.656    -0.443    21.695     6.288
    52   8 O        1.657    -0.427    21.380     6.242
    53   6 C        3.647     0.238    17.196     5.959
    54   6 C        3.722     0.084    19.295     6.273
    55   6 C        3.724     0.094    19.129     6.246
    56   6 C        3.721     0.088    19.223     6.262
    57   6 C        3.740     0.102    18.968     6.214
    58   8 O        1.696    -0.363    20.129     6.057
    59   6 C        3.674     0.076    19.528     6.332
    60   8 O        1.653    -0.481    22.479     6.400
    61   8 O        1.654    -0.476    22.378     6.386
    62   8 O        1.654    -0.481    22.483     6.401
    63   8 O        1.654    -0.483    22.534     6.408
    64   6 C        2.974    -0.028    28.707     8.789
    65   6 C        2.926    -0.029    28.736     8.791
    66   6 C        2.927    -0.030    28.742     8.792
    67   6 C        2.976     0.024    27.463     8.596
    68   6 C        2.925    -0.037    28.917     8.819
    69   6 C        2.925    -0.018    28.454     8.748
    70   6 C        2.976     0.000    28.013     8.682
    71   6 C        2.924    -0.032    28.796     8.800
    72   6 C        2.919    -0.062    29.548     8.914
    73   6 C        2.860     0.144    24.869     8.174
    74   6 C        2.920    -0.056    29.383     8.889
    75   6 C        2.923    -0.035    28.879     8.813
    76   8 O        1.701    -0.298    18.962     5.879
    77   6 C        3.701     0.071    19.551     6.323
    78   6 C        2.970     0.001    28.007     8.681
    79   6 C        2.929    -0.043    29.065     8.841
    80   6 C        2.922    -0.031    28.775     8.797
    81   6 C        2.924    -0.035    28.869     8.811
    82   6 C        2.922    -0.031    28.762     8.795
    83   6 C        2.930    -0.031    28.777     8.798
    84   1 H        0.926     0.074     2.043     2.235
    85   1 H        0.926     0.066     2.126     2.280
    86   1 H        0.924     0.044     2.397     2.421
    87   1 H        0.924     0.068     2.105     2.269
    88   1 H        0.924     0.029     2.601     2.522
    89   1 H        0.923     0.077     2.013     2.219
    90   1 H        0.924     0.055     2.253     2.348
    91   1 H        0.924     0.040     2.455     2.450
    92   1 H        0.924     0.032     2.559     2.502
    93   1 H        0.804     0.348     0.594     1.210
    94   1 H        0.802     0.318     0.671     1.287
    95   1 H        0.924     0.044     2.398     2.422
    96   1 H        0.924     0.068     2.112     2.273
    97   1 H        0.803     0.351     0.585     1.201
    98   1 H        0.924    -0.001     3.074     2.742
    99   1 H        0.923     0.028     2.619     2.531
   100   1 H        0.923     0.050     2.326     2.385
   101   1 H        0.923     0.066     2.133     2.284
   102   1 H        0.924     0.093     1.847     2.125
   103   1 H        0.804     0.362     0.561     1.177
   104   1 H        0.803     0.368     0.548     1.162
   105   1 H        0.924     0.102     1.770     2.081
   106   1 H        0.924     0.079     1.989     2.205
   107   1 H        0.926     0.086     1.918     2.166
   108   1 H        0.926     0.072     2.065     2.247
   109   1 H        0.926     0.076     2.020     2.223
   110   1 H        0.926     0.071     2.079     2.255
   111   1 H        0.924     0.063     2.161     2.299
   112   1 H        0.924     0.081     1.973     2.196
   113   1 H        0.923     0.057     2.232     2.336
   114   1 H        0.926     0.057     2.233     2.337
   115   1 H        0.804     0.339     0.616     1.233
   116   1 H        0.926     0.028     2.611     2.527
   117   1 H        0.926     0.049     2.333     2.389
   118   1 H        0.926     0.011     2.870     2.649
   119   1 H        0.924     0.041     2.430     2.438
   120   1 H        0.924     0.036     2.498     2.472
   121   1 H        0.924     0.025     2.660     2.550
   122   1 H        0.924     0.028     2.619     2.531
   123   1 H        0.924     0.042     2.429     2.437
   124   1 H        0.924     0.033     2.550     2.497
   125   1 H        0.924     0.026     2.638     2.540
   126   1 H        0.924     0.019     2.743     2.590
   127   1 H        0.924     0.045     2.390     2.417
   128   1 H        0.924     0.034     2.536     2.491
   129   1 H        0.924     0.038     2.471     2.458
   130   1 H        0.804     0.365     0.555     1.170
   131   1 H        0.804     0.360     0.566     1.182
   132   1 H        0.923     0.002     3.025     2.720
   133   1 H        0.923     0.062     2.180     2.309
   134   1 H        0.923     0.031     2.578     2.511
   135   1 H        0.923     0.051     2.312     2.378
   136   1 H        0.924     0.011     2.876     2.652
   137   1 H        0.924     0.064     2.157     2.297
   138   1 H        0.924     0.049     2.337     2.391
   139   1 H        0.803     0.374     0.536     1.150
   140   1 H        0.804     0.370     0.544     1.159
   141   1 H        0.804     0.360     0.566     1.182
   142   1 H        0.803     0.359     0.569     1.185
   143   1 H        0.926     0.064     2.151     2.293
   144   1 H        0.926     0.064     2.158     2.297
   145   1 H        0.926     0.059     2.210     2.325
   146   1 H        0.926     0.055     2.255     2.348
   147   1 H        0.926     0.043     2.413     2.429
   148   1 H        0.926     0.048     2.348     2.396
   149   1 H        0.926     0.060     2.200     2.319
   150   1 H        0.926     0.054     2.276     2.359
   151   1 H        0.924     0.042     2.424     2.435
   152   1 H        0.924     0.067     2.115     2.274
   153   1 H        0.926     0.035     2.521     2.483
   154   1 H        0.926     0.043     2.410     2.428
   155   1 H        0.926     0.038     2.472     2.459
   156   1 H        0.926     0.039     2.456     2.451
   157   1 H        0.926     0.043     2.411     2.428

 Mol. C6AA /au·bohr⁶  :     253698.652587
 Mol. C8AA /au·bohr⁸  :    5867800.158016
 Mol. α(0) /au        :        765.520698


Wiberg/Mayer (AO) data.
largest (>0.10) Wiberg bond orders for each atom

 ---------------------------------------------------------------------------
     #   Z sym  total        # sym  WBO       # sym  WBO       # sym  WBO
 ---------------------------------------------------------------------------
     1   6 C    3.941 --     6 C    1.390     2 C    1.338    51 O    1.064
     2   6 C    3.976 --     3 C    1.393     1 C    1.338     7 C    0.992
     3   6 C    3.988 --     4 C    1.431     2 C    1.393    13 C    1.002
     4   6 C    3.984 --     3 C    1.431     5 C    1.358    84 H    0.962
     5   6 C    3.946 --     6 C    1.377     4 C    1.358    52 O    1.081
     6   6 C    3.974 --     1 C    1.390     5 C    1.377    85 H    0.959
     7   6 C    3.937 --     2 C    0.992    86 H    0.952     8 C    0.950
                            12 O    0.946
     8   6 C    3.949 --    15 O    0.994     9 C    0.963     7 C    0.950
                            87 H    0.947
     9   6 C    3.928 --    10 C    0.971     8 C    0.963    88 H    0.950
                            17 O    0.939
    10   6 C    3.936 --     9 C    0.971    16 O    0.963    11 C    0.958
                            89 H    0.954
    11   6 C    3.944 --    18 C    0.982    12 O    0.968    10 C    0.958
                            90 H    0.947
    12   8 O    2.060 --    11 C    0.968     7 C    0.946
    13   6 C    3.955 --     3 C    1.002    14 O    0.981    91 H    0.967
                            92 H    0.962
    14   8 O    1.924 --    13 C    0.981    93 H    0.864
    15   8 O    1.938 --     8 C    0.994    94 H    0.847
    16   8 O    2.088 --    20 C    0.984    10 C    0.963
    17   8 O    2.262 --    33 C    1.085     9 C    0.939    35 O    0.147
    18   6 C    3.960 --    19 O    1.013    11 C    0.982    96 H    0.967
                            95 H    0.966
    19   8 O    1.930 --    18 C    1.013    97 H    0.856
    20   6 C    3.928 --    16 O    0.984    21 O    0.959    25 C    0.954
                            98 H    0.936
    21   8 O    2.061 --    20 C    0.959    22 C    0.950
    22   6 C    3.939 --    29 C    0.984    23 C    0.969    21 O    0.950
                            99 H    0.949
    23   6 C    3.968 --    28 O    1.008    22 C    0.969    24 C    0.967
                           100 H    0.957
    24   6 C    3.958 --    26 O    0.999    23 C    0.967    25 C    0.962
                           101 H    0.948
    25   6 C    3.934 --    27 O    0.963    24 C    0.962    20 C    0.954
                           102 H    0.953
    26   8 O    1.932 --    24 C    0.999   103 H    0.852
    27   8 O    2.086 --    53 C    0.984    25 C    0.963
    28   8 O    1.923 --    23 C    1.008   104 H    0.842
    29   6 C    3.929 --    22 C    0.984    30 O    0.963   105 H    0.962
                           106 H    0.960
    30   8 O    2.273 --    31 C    1.084    29 C    0.963    32 O    0.148
    31   6 C    3.895 --    32 O    1.684    30 O    1.084    64 C    1.035
    32   8 O    1.988 --    31 C    1.684    30 O    0.148
    33   6 C    3.895 --    35 O    1.619    17 O    1.085    34 C    1.077
    34   6 C    3.964 --    36 C    1.698    33 C    1.077   107 H    0.959
                            38 C    0.113
    35   8 O    1.980 --    33 C    1.619    17 O    0.147
    36   6 C    3.971 --    34 C    1.698    37 C    1.169   108 H    0.956
    37   6 C    3.983 --    38 C    1.756    36 C    1.169   109 H    0.957
    38   6 C    3.970 --    37 C    1.756    39 C    1.049   110 H    0.961
                            34 C    0.113
    39   6 C    3.984 --    38 C    1.049   111 H    0.969   112 H    0.957
                            40 C    0.931
    40   6 C    3.941 --    41 C    1.007    42 O    0.988   113 H    0.953
                            39 C    0.931
    41   6 C    3.977 --    43 C    1.844    40 C    1.007   114 H    0.961
                            45 C    0.108
    42   8 O    1.934 --    40 C    0.988   115 H    0.869
    43   6 C    3.991 --    41 C    1.844    44 C    1.107   116 H    0.958
    44   6 C    3.988 --    45 C    1.843    43 C    1.107   117 H    0.953
    45   6 C    3.985 --    44 C    1.843    46 C    1.030   118 H    0.964
                            41 C    0.108
    46   6 C    3.995 --    45 C    1.030    47 C    0.982   119 H    0.970
                           120 H    0.969
    47   6 C    3.987 --    48 C    1.006    46 C    0.982   122 H    0.974
                           121 H    0.971
    48   6 C    3.994 --    49 C    1.006    47 C    1.006   124 H    0.976
                           123 H    0.972
    49   6 C    3.996 --    50 C    1.021    48 C    1.006   126 H    0.977
                           125 H    0.975
    50   6 C    3.995 --    49 C    1.021   128 H    0.987   129 H    0.986
                           127 H    0.982
    51   8 O    2.081 --     1 C    1.064   130 H    0.846
    52   8 O    2.092 --     5 C    1.081   131 H    0.851
    53   6 C    3.922 --    27 O    0.984    54 C    0.955    58 O    0.951
                           132 H    0.943
    54   6 C    3.959 --    62 O    1.001    55 C    0.969    53 C    0.955
                           133 H    0.955
    55   6 C    3.967 --    61 O    1.005    54 C    0.969    56 C    0.968
                           134 H    0.956
    56   6 C    3.965 --    60 O    1.003    55 C    0.968    57 C    0.966
                           135 H    0.955
    57   6 C    3.937 --    59 C    0.981    56 C    0.966    58 O    0.949
                           136 H    0.945
    58   8 O    2.059 --    53 C    0.951    57 C    0.949
    59   6 C    3.963 --    63 O    1.018    57 C    0.981   138 H    0.962
                           137 H    0.962
    60   8 O    1.941 --    56 C    1.003   139 H    0.831
    61   8 O    1.934 --    55 C    1.005   140 H    0.846
    62   8 O    1.927 --    54 C    1.001   141 H    0.853
    63   8 O    1.921 --    59 C    1.018   142 H    0.831
    64   6 C    3.975 --    65 C    1.366    69 C    1.362    31 C    1.035
    65   6 C    3.986 --    66 C    1.474    64 C    1.366   143 H    0.956
    66   6 C    3.986 --    65 C    1.474    67 C    1.368   144 H    0.960
    67   6 C    3.984 --    68 C    1.368    66 C    1.368    70 C    1.063
    68   6 C    3.986 --    69 C    1.478    67 C    1.368   145 H    0.964
    69   6 C    3.987 --    68 C    1.478    64 C    1.362   146 H    0.965
    70   6 C    3.985 --    71 C    1.376    75 C    1.365    67 C    1.063
    71   6 C    3.987 --    72 C    1.464    70 C    1.376   147 H    0.963
    72   6 C    3.988 --    71 C    1.464    73 C    1.363   148 H    0.961
    73   6 C    3.925 --    72 C    1.363    74 C    1.352    76 O    1.047
    74   6 C    3.986 --    75 C    1.482    73 C    1.352   149 H    0.966
    75   6 C    3.986 --    74 C    1.482    70 C    1.365   150 H    0.965
    76   8 O    2.197 --    73 C    1.047    77 C    0.963
    77   6 C    3.941 --    78 C    0.999    76 O    0.963   151 H    0.962
                           152 H    0.952
    78   6 C    3.987 --    83 C    1.416    79 C    1.409    77 C    0.999
                            81 C    0.108
    79   6 C    3.991 --    80 C    1.446    78 C    1.409   153 H    0.969
                            82 C    0.112
    80   6 C    3.992 --    79 C    1.446    81 C    1.434   154 H    0.969
                            83 C    0.111
    81   6 C    3.992 --    82 C    1.438    80 C    1.434   155 H    0.971
                            78 C    0.108
    82   6 C    3.992 --    83 C    1.441    81 C    1.438   156 H    0.970
                            79 C    0.112
    83   6 C    3.992 --    82 C    1.441    78 C    1.416   157 H    0.966
                            80 C    0.111
    84   1 H    0.994 --     4 C    0.962
    85   1 H    0.995 --     6 C    0.959
    86   1 H    0.998 --     7 C    0.952
    87   1 H    0.995 --     8 C    0.947
    88   1 H    0.999 --     9 C    0.950
    89   1 H    0.994 --    10 C    0.954
    90   1 H    0.997 --    11 C    0.947
    91   1 H    0.998 --    13 C    0.967
    92   1 H    0.999 --    13 C    0.962
    93   1 H    0.878 --    14 O    0.864
    94   1 H    0.899 --    15 O    0.847
    95   1 H    0.998 --    18 C    0.966
    96   1 H    0.995 --    18 C    0.967
    97   1 H    0.876 --    19 O    0.856
    98   1 H    1.000 --    20 C    0.936
    99   1 H    0.999 --    22 C    0.949
   100   1 H    0.997 --    23 C    0.957
   101   1 H    0.996 --    24 C    0.948
   102   1 H    0.991 --    25 C    0.953
   103   1 H    0.869 --    26 O    0.852
   104   1 H    0.864 --    28 O    0.842
   105   1 H    0.989 --    29 C    0.962
   106   1 H    0.993 --    29 C    0.960
   107   1 H    0.993 --    34 C    0.959
   108   1 H    0.995 --    36 C    0.956
   109   1 H    0.994 --    37 C    0.957
   110   1 H    0.995 --    38 C    0.961
   111   1 H    0.996 --    39 C    0.969
   112   1 H    0.988 --    39 C    0.957
   113   1 H    0.996 --    40 C    0.953
   114   1 H    0.997 --    41 C    0.961
   115   1 H    0.885 --    42 O    0.869
   116   1 H    0.999 --    43 C    0.958
   117   1 H    0.997 --    44 C    0.953
   118   1 H    1.000 --    45 C    0.964
   119   1 H    0.998 --    46 C    0.970
   120   1 H    0.997 --    46 C    0.969
   121   1 H    0.999 --    47 C    0.971
   122   1 H    0.999 --    47 C    0.974
   123   1 H    0.998 --    48 C    0.972
   124   1 H    0.999 --    48 C    0.976
   125   1 H    0.999 --    49 C    0.975
   126   1 H    1.000 --    49 C    0.977
   127   1 H    0.998 --    50 C    0.982
   128   1 H    0.999 --    50 C    0.987
   129   1 H    0.998 --    50 C    0.986
   130   1 H    0.866 --    51 O    0.846
   131   1 H    0.870 --    52 O    0.851
   132   1 H    1.000 --    53 C    0.943
   133   1 H    0.996 --    54 C    0.955
   134   1 H    0.999 --    55 C    0.956
   135   1 H    0.997 --    56 C    0.955
   136   1 H    1.000 --    57 C    0.945
   137   1 H    0.996 --    59 C    0.962
   138   1 H    0.997 --    59 C    0.962
   139   1 H    0.860 --    60 O    0.831
   140   1 H    0.863 --    61 O    0.846
   141   1 H    0.870 --    62 O    0.853
   142   1 H    0.871 --    63 O    0.831
   143   1 H    0.995 --    65 C    0.956
   144   1 H    0.996 --    66 C    0.960
   145   1 H    0.996 --    68 C    0.964
   146   1 H    0.996 --    69 C    0.965
   147   1 H    0.998 --    71 C    0.963
   148   1 H    0.997 --    72 C    0.961
   149   1 H    0.996 --    74 C    0.966
   150   1 H    0.996 --    75 C    0.965
   151   1 H    0.998 --    77 C    0.962
   152   1 H    0.995 --    77 C    0.952
   153   1 H    0.999 --    79 C    0.969
   154   1 H    0.998 --    80 C    0.969
   155   1 H    0.998 --    81 C    0.971
   156   1 H    0.998 --    82 C    0.970
   157   1 H    0.998 --    83 C    0.966
 ---------------------------------------------------------------------------

Topologies differ in total number of bonds
Writing topology from bond orders to xtbtopo.mol

molecular dipole:
                 x           y           z       tot (Debye)
 q only:       -3.218      -1.587      -2.069
   full:       -2.905      -1.834      -2.456      10.734
molecular quadrupole (traceless):
                xx          xy          yy          xz          yz          zz
 q only:      -32.604     -19.076      51.441     -26.855      38.830     -18.837
  q+dip:      -44.075     -22.694      48.291     -30.670      47.735      -4.216
   full:      -41.837     -23.240      46.413     -33.250      49.357      -4.576


           -------------------------------------------------
          | TOTAL ENERGY             -257.871633358459 Eh   |
          | GRADIENT NORM               0.126025288427 Eh/α |
          | HOMO-LUMO GAP               1.521910107733 eV   |
           -------------------------------------------------

------------------------------------------------------------------------
 * finished run on 2026/06/19 at 18:53:02.465     
------------------------------------------------------------------------
 total:
 * wall-time:     0 d,  0 h,  0 min,  0.343 sec
 *  cpu-time:     0 d,  0 h,  0 min,  5.332 sec
 * ratio c/w:    15.547 speedup
 SCF:
 * wall-time:     0 d,  0 h,  0 min,  0.292 sec
 *  cpu-time:     0 d,  0 h,  0 min,  4.650 sec
 * ratio c/w:    15.906 speedup

normal termination of xtb
