      -----------------------------------------------------------      
     |                   =====================                   |     
     |                           x T B                           |     
     |                   =====================                   |     
     |                         S. Grimme                         |     
     |          Mulliken Center for Theoretical Chemistry        |     
     |                    University of Bonn                     |     
      -----------------------------------------------------------      

   * xtb version 6.7.1 (edcfbbe) compiled by 'albert@albert-system' on 2024-07-22

   xtb is free software: you can redistribute it and/or modify it under
   the terms of the GNU Lesser General Public License as published by
   the Free Software Foundation, either version 3 of the License, or
   (at your option) any later version.
   
   xtb is distributed in the hope that it will be useful,
   but WITHOUT ANY WARRANTY; without even the implied warranty of
   MERCHANTABILITY or FITNESS FOR A PARTICULAR PURPOSE.  See the
   GNU Lesser General Public License for more details.
   
   Cite this work as:
   * C. Bannwarth, E. Caldeweyher, S. Ehlert, A. Hansen, P. Pracht,
     J. Seibert, S. Spicher, S. Grimme, WIREs Comput. Mol. Sci., 2020, 11,
     e01493. DOI: 10.1002/wcms.1493
   
   for GFN2-xTB:
   * C. Bannwarth, S. Ehlert and S. Grimme., J. Chem. Theory Comput., 2019,
     15, 1652-1671. DOI: 10.1021/acs.jctc.8b01176
   for GFN1-xTB:
   * S. Grimme, C. Bannwarth, P. Shushkov, J. Chem. Theory Comput., 2017,
     13, 1989-2009. DOI: 10.1021/acs.jctc.7b00118
   for GFN0-xTB:
   * P. Pracht, E. Caldeweyher, S. Ehlert, S. Grimme, ChemRxiv, 2019, preprint.
     DOI: 10.26434/chemrxiv.8326202.v1
   for GFN-FF:
   * S. Spicher and S. Grimme, Angew. Chem. Int. Ed., 2020, 59, 15665-15673.
     DOI: 10.1002/anie.202004239
   
   for ALPB and GBSA implicit solvation:
   * S. Ehlert, M. Stahn, S. Spicher, S. Grimme, J. Chem. Theory Comput.,
     2021, 17, 4250-4261. DOI: 10.1021/acs.jctc.1c00471
   
   for ddCOSMO and CPCM-X implicit solvation:
   * M. Stahn, S. Ehlert, S. Grimme, J. Phys. Chem. A,
     2023, XX, XXXX-XXXX. DOI: 10.1021/acs.jpca.3c04382
   
   for DFT-D4:
   * E. Caldeweyher, C. Bannwarth and S. Grimme, J. Chem. Phys., 2017,
     147, 034112. DOI: 10.1063/1.4993215
   * E. Caldeweyher, S. Ehlert, A. Hansen, H. Neugebauer, S. Spicher,
     C. Bannwarth and S. Grimme, J. Chem. Phys., 2019, 150, 154122.
     DOI: 10.1063/1.5090222
   * E. Caldeweyher, J.-M. Mewes, S. Ehlert and S. Grimme, Phys. Chem. Chem. Phys.
     2020, 22, 8499-8512. DOI: 10.1039/D0CP00502A
   
   for sTDA-xTB:
   * S. Grimme and C. Bannwarth, J. Chem. Phys., 2016, 145, 054103.
     DOI: 10.1063/1.4959605
   
   in the mass-spec context:
   * V. Asgeirsson, C. Bauer and S. Grimme, Chem. Sci., 2017, 8, 4879.
     DOI: 10.1039/c7sc00601b
   * J. Koopman and S. Grimme, ACS Omega 2019, 4, 12, 15120-15133.
     DOI: 10.1021/acsomega.9b02011
   
   for metadynamics refer to:
   * S. Grimme, J. Chem. Theory Comput., 2019, 155, 2847-2862
     DOI: 10.1021/acs.jctc.9b00143
   
   for SPH calculations refer to:
   * S. Spicher and S. Grimme, J. Chem. Theory Comput., 2021, 17, 1701-1714
     DOI: 10.1021/acs.jctc.0c01306
   
   for ONIOM refer to:
   * C. Plett, A. Katbashev, S. Ehlert, S. Grimme, M. Bursch,
     Phys. Chem. Chem. Phys., 2023, 25, 17860-17868. DOI: 10.1039/D3CP02178E
   
   for DIPRO refer to:
   * J. Kohn, N. Gildemeister, S. Grimme, D. Fazzi, A. Hansen,
     J. Chem. Phys., 2023, just accepted.
   
   for PTB refer to:
   * S. Grimme, M. Mueller, A. Hansen, J. Chem. Phys., 2023, 158, 124111.
     DOI: 10.1063/5.0137838
   
   with help from (in alphabetical order)
   P. Atkinson, C. Bannwarth, F. Bohle, G. Brandenburg, E. Caldeweyher
   M. Checinski, S. Dohm, S. Ehlert, S. Ehrlich, I. Gerasimov, C. Hölzer
   A. Katbashev, J. Kohn, J. Koopman, C. Lavigne, S. Lehtola, F. März, M. Müller,
   F. Musil, H. Neugebauer, J. Pisarek, C. Plett, P. Pracht, F. Pultar,
   J. Seibert, P. Shushkov, S. Spicher, M. Stahn, M. Steiner, T. Strunk,
   J. Stückrath, T. Rose, and J. Unsleber
   
 * started run on 2026/06/19 at 18:52:59.918     
   ID    Z sym.   atoms
    1    6 C      1-11, 13, 18, 20, 22-25, 29, 31, 33, 34, 36-41, 43-50,
                  53-57, 59, 64-75, 77-83
    2    8 O      12, 14-17, 19, 21, 26-28, 30, 32, 35, 42, 51, 52, 58,
                  60-63, 76
    3    1 H      84-157

           -------------------------------------------------
          |                Calculation Setup                |
           -------------------------------------------------

          program call               : xtb PAPU-0088/conf02.xyz --gfn 2 --alpb octanol --chrg 0 --uhf 0 --namespace PAPU-0088/conf02_octanol
          hostname                   : cpu10
          calculation namespace      : PAPU-0088/conf02_octanol
          coordinate file            : PAPU-0088/conf02.xyz
          omp threads                :                    16


           -------------------------------------------------
          |                 G F N 2 - x T B                 |
           -------------------------------------------------

        Reference                      10.1021/acs.jctc.8b01176
      * Hamiltonian:
        H0-scaling (s, p, d)           1.850000    2.230000    2.230000
        zeta-weighting                 0.500000
      * Dispersion:
        s8                             2.700000
        a1                             0.520000
        a2                             5.000000
        s9                             5.000000
      * Repulsion:
        kExp                           1.500000    1.000000
        rExp                           1.000000
      * Coulomb:
        alpha                          2.000000
        third order                    shell-resolved
        anisotropic                    true
        a3                             3.000000
        a5                             4.000000
        cn-shift                       1.200000
        cn-exp                         4.000000
        max-rad                        5.000000

      * Solvation model:               ALPB
        Solvent                        octanol
        Parameter file                 internal GFN2-xTB/ALPB
        Dielectric constant                9.8629E+00
        Reference state                gsolv [1 M gas/solution]
        Free energy shift                  2.3397E-03 Eh       1.4682E+00 kcal/mol
        Temperature                        2.9815E+02 K
        Density                            8.3000E-01 kg/L
        Solvent mass                       1.3023E+02 g/mol
        Interaction kernel             P16
        Born radius scaling (c1)           1.5898E+00
        Born radii integrator          GBOBC
        Born offset                        0.0000E+00 a0       0.0000E+00 AA
        H-bond correction              true
        Ion screening                  false
        Surface tension                    1.0000E-05 Eh       1.5569E+01 dyn/cm
        Grid points                               230 per atom

          ...................................................
          :                      SETUP                      :
          :.................................................:
          :  # basis functions                 406          :
          :  # atomic orbitals                 406          :
          :  # shells                          240          :
          :  # electrons                       450          :
          :  max. iterations                   250          :
          :  Hamiltonian                  GFN2-xTB          :
          :  restarted?                      false          :
          :  GBSA solvation                   true          :
          :  PC potential                    false          :
          :  electronic temp.          300.0000000     K    :
          :  accuracy                    1.0000000          :
          :  -> integral cutoff          0.2500000E+02      :
          :  -> integral neglect         0.1000000E-07      :
          :  -> SCF convergence          0.1000000E-05 Eh   :
          :  -> wf. convergence          0.1000000E-03 e    :
          :  Broyden damping             0.4000000          :
          :  net charge                          0          :
          :  unpaired electrons                  0          :
          ...................................................

 iter      E             dE          RMSdq      gap      omega  full diag
   1   -260.5705717 -0.260571E+03  0.457E+00    2.30       0.0  T
   2   -260.8118721 -0.241300E+00  0.254E+00    1.67       1.0  T
   3   -260.7907035  0.211687E-01  0.102E+00    1.69       1.0  T
   4   -260.8369963 -0.462928E-01  0.282E-01    1.43       1.0  T
   5   -260.8419393 -0.494306E-02  0.125E-01    1.44       1.0  T
   6   -260.8428705 -0.931202E-03  0.628E-02    1.46       1.0  T
   7   -260.8430515 -0.180928E-03  0.289E-02    1.47       1.0  T
   8   -260.8430913 -0.397994E-04  0.113E-02    1.47       1.0  T
   9   -260.8430961 -0.486559E-05  0.551E-03    1.47       1.4  T
  10   -260.8430978 -0.170471E-05  0.275E-03    1.47       2.9  T
  11   -260.8430982 -0.326455E-06  0.135E-03    1.47       5.9  T
  12   -260.8430982 -0.437855E-07  0.541E-04    1.47      14.7  T
  13   -260.8430982 -0.180603E-07  0.237E-04    1.47      33.7  T

   *** convergence criteria satisfied after 13 iterations ***

         #    Occupation            Energy/Eh            Energy/eV
      -------------------------------------------------------------
         1        2.0000           -0.7838412             -21.3294
       ...           ...                  ...                  ...
       219        2.0000           -0.4057073             -11.0399
       220        2.0000           -0.4034559             -10.9786
       221        2.0000           -0.4000769             -10.8866
       222        2.0000           -0.3974551             -10.8153
       223        2.0000           -0.3891237             -10.5886
       224        2.0000           -0.3789949             -10.3130
       225        2.0000           -0.3761383             -10.2352 (HOMO)
       226                         -0.3221391              -8.7659 (LUMO)
       227                         -0.2891235              -7.8675
       228                         -0.2440777              -6.6417
       229                         -0.2401689              -6.5353
       230                         -0.2381193              -6.4796
       ...                                ...                  ...
       406                          0.6888459              18.7445
      -------------------------------------------------------------
                  HL-Gap            0.0539992 Eh            1.4694 eV
             Fermi-level           -0.3491097 Eh           -9.4998 eV

 SCC (total)                   0 d,  0 h,  0 min,  0.296 sec
 SCC setup                      ...        0 min,  0.004 sec (  1.300%)
 Dispersion                     ...        0 min,  0.005 sec (  1.597%)
 classical contributions        ...        0 min,  0.000 sec (  0.083%)
 integral evaluation            ...        0 min,  0.015 sec (  5.105%)
 iterations                     ...        0 min,  0.225 sec ( 76.078%)
 molecular gradient             ...        0 min,  0.044 sec ( 14.846%)
 printout                       ...        0 min,  0.003 sec (  0.978%)

         :::::::::::::::::::::::::::::::::::::::::::::::::::::
         ::                     SUMMARY                     ::
         :::::::::::::::::::::::::::::::::::::::::::::::::::::
         :: total energy            -257.871004449126 Eh    ::
         :: total w/o Gsasa/hb      -257.788222685779 Eh    ::
         :: gradient norm              0.130968698379 Eh/a0 ::
         :: HOMO-LUMO gap              1.469391958146 eV    ::
         ::.................................................::
         :: SCC energy              -260.823862900416 Eh    ::
         :: -> isotropic ES            0.556177078729 Eh    ::
         :: -> anisotropic ES         -0.024267776594 Eh    ::
         :: -> anisotropic XC          0.029826928420 Eh    ::
         :: -> dispersion             -0.227931147010 Eh    ::
         :: -> Gsolv                  -0.119180728130 Eh    ::
         ::    -> Gelec               -0.036398964784 Eh    ::
         ::    -> Gsasa               -0.032306997860 Eh    ::
         ::    -> Ghb                 -0.052814434862 Eh    ::
         ::    -> Gshift               0.002339669376 Eh    ::
         :: repulsion energy           2.952858451290 Eh    ::
         :: add. restraining           0.000000000000 Eh    ::
         :: total charge               0.000000000000 e     ::
         :::::::::::::::::::::::::::::::::::::::::::::::::::::

           -------------------------------------------------
          |                Property Printout                |
           -------------------------------------------------

    * Orbital Energies and Occupations

         #    Occupation            Energy/Eh            Energy/eV
      -------------------------------------------------------------
         1        2.0000           -0.7838412             -21.3294
       ...           ...                  ...                  ...
       213        2.0000           -0.4146238             -11.2825
       214        2.0000           -0.4137771             -11.2594
       215        2.0000           -0.4122880             -11.2189
       216        2.0000           -0.4102830             -11.1644
       217        2.0000           -0.4098539             -11.1527
       218        2.0000           -0.4090799             -11.1316
       219        2.0000           -0.4057073             -11.0399
       220        2.0000           -0.4034559             -10.9786
       221        2.0000           -0.4000769             -10.8866
       222        2.0000           -0.3974551             -10.8153
       223        2.0000           -0.3891237             -10.5886
       224        2.0000           -0.3789949             -10.3130
       225        2.0000           -0.3761383             -10.2352 (HOMO)
       226                         -0.3221391              -8.7659 (LUMO)
       227                         -0.2891235              -7.8675
       228                         -0.2440777              -6.6417
       229                         -0.2401689              -6.5353
       230                         -0.2381193              -6.4796
       231                         -0.2329768              -6.3396
       232                         -0.2309404              -6.2842
       233                         -0.2301209              -6.2619
       234                         -0.2250372              -6.1236
       235                         -0.2221860              -6.0460
       236                         -0.2205898              -6.0026
       ...                                ...                  ...
       406                          0.6888459              18.7445
      -------------------------------------------------------------
                  HL-Gap            0.0539992 Eh            1.4694 eV
             Fermi-level           -0.3491097 Eh           -9.4998 eV

     #   Z          covCN         q      C6AA      α(0)
     1   6 C        2.841     0.142    24.906     8.179
     2   6 C        2.973    -0.028    28.685     8.785
     3   6 C        2.965     0.012    27.743     8.640
     4   6 C        2.929    -0.072    29.794     8.952
     5   6 C        2.839     0.152    24.705     8.145
     6   6 C        2.920    -0.117    30.961     9.125
     7   6 C        3.746     0.104    18.928     6.206
     8   6 C        3.720     0.094    19.134     6.248
     9   6 C        3.752     0.110    18.836     6.189
    10   6 C        3.741     0.092    19.130     6.240
    11   6 C        3.742     0.086    19.231     6.256
    12   8 O        1.695    -0.349    19.879     6.020
    13   6 C        3.682     0.076    19.511     6.326
    14   8 O        1.653    -0.495    22.793     6.445
    15   8 O        1.651    -0.476    22.391     6.388
    16   8 O        1.698    -0.328    19.484     5.959
    17   8 O        1.702    -0.297    18.940     5.876
    18   6 C        3.675     0.073    19.575     6.340
    19   8 O        1.654    -0.474    22.340     6.381
    20   6 C        3.641     0.250    17.058     5.939
    21   8 O        1.696    -0.351    19.915     6.025
    22   6 C        3.753     0.113    18.780     6.180
    23   6 C        3.722     0.091    19.182     6.255
    24   6 C        3.722     0.084    19.284     6.271
    25   6 C        3.753     0.084    19.246     6.256
    26   8 O        1.654    -0.479    22.444     6.395
    27   8 O        1.699    -0.323    19.399     5.946
    28   8 O        1.653    -0.479    22.449     6.396
    29   6 C        3.736     0.068    19.527     6.306
    30   8 O        1.703    -0.276    18.583     5.820
    31   6 C        2.757     0.350    21.062     7.515
    32   8 O        0.857    -0.464    23.003     6.430
    33   6 C        2.727     0.356    20.961     7.495
    34   6 C        2.897    -0.097    30.428     9.044
    35   8 O        0.858    -0.491    23.588     6.512
    36   6 C        2.903    -0.002    28.072     8.688
    37   6 C        2.899    -0.042    29.041     8.836
    38   6 C        2.895    -0.013    28.345     8.729
    39   6 C        3.806    -0.083    22.088     6.690
    40   6 C        3.728     0.118    18.752     6.182
    41   6 C        2.894    -0.068    29.689     8.934
    42   8 O        1.652    -0.490    22.681     6.429
    43   6 C        2.897    -0.040    28.989     8.828
    44   6 C        2.898    -0.051    29.255     8.868
    45   6 C        2.896    -0.036    28.887     8.812
    46   6 C        3.805    -0.059    21.641     6.623
    47   6 C        3.802    -0.049    21.455     6.594
    48   6 C        3.800    -0.065    21.747     6.640
    49   6 C        3.799    -0.054    21.541     6.608
    50   6 C        3.750    -0.105    22.578     6.777
    51   8 O        1.656    -0.442    21.681     6.286
    52   8 O        1.657    -0.431    21.460     6.254
    53   6 C        3.658     0.240    17.132     5.940
    54   6 C        3.723     0.083    19.304     6.274
    55   6 C        3.723     0.093    19.138     6.247
    56   6 C        3.722     0.091    19.171     6.253
    57   6 C        3.746     0.110    18.842     6.192
    58   8 O        1.695    -0.372    20.299     6.083
    59   6 C        3.673     0.067    19.687     6.359
    60   8 O        1.653    -0.479    22.440     6.395
    61   8 O        1.654    -0.476    22.387     6.387
    62   8 O        1.653    -0.480    22.460     6.398
    63   8 O        1.652    -0.460    22.054     6.339
    64   6 C        2.975    -0.032    28.792     8.802
    65   6 C        2.925    -0.023    28.573     8.766
    66   6 C        2.925    -0.036    28.890     8.814
    67   6 C        2.976     0.024    27.454     8.595
    68   6 C        2.928    -0.031    28.782     8.798
    69   6 C        2.926    -0.030    28.752     8.794
    70   6 C        2.976     0.000    28.018     8.683
    71   6 C        2.923    -0.032    28.804     8.801
    72   6 C        2.919    -0.061    29.514     8.909
    73   6 C        2.861     0.143    24.886     8.177
    74   6 C        2.920    -0.054    29.344     8.883
    75   6 C        2.923    -0.035    28.879     8.813
    76   8 O        1.700    -0.302    19.033     5.890
    77   6 C        3.702     0.072    19.533     6.320
    78   6 C        2.971     0.000    28.021     8.683
    79   6 C        2.929    -0.044    29.084     8.844
    80   6 C        2.922    -0.032    28.789     8.799
    81   6 C        2.925    -0.034    28.843     8.807
    82   6 C        2.922    -0.032    28.804     8.801
    83   6 C        2.930    -0.034    28.839     8.807
    84   1 H        0.926     0.077     2.007     2.216
    85   1 H        0.926     0.067     2.119     2.277
    86   1 H        0.924     0.045     2.388     2.416
    87   1 H        0.923     0.066     2.128     2.281
    88   1 H        0.924     0.023     2.692     2.566
    89   1 H        0.923     0.079     1.986     2.204
    90   1 H        0.924     0.055     2.253     2.347
    91   1 H        0.924     0.040     2.450     2.448
    92   1 H        0.924     0.033     2.540     2.492
    93   1 H        0.804     0.348     0.594     1.210
    94   1 H        0.802     0.321     0.660     1.277
    95   1 H        0.924     0.044     2.398     2.422
    96   1 H        0.924     0.068     2.113     2.273
    97   1 H        0.803     0.352     0.584     1.201
    98   1 H        0.924     0.001     3.041     2.727
    99   1 H        0.923     0.027     2.637     2.539
   100   1 H        0.923     0.051     2.310     2.377
   101   1 H        0.923     0.056     2.245     2.343
   102   1 H        0.924     0.094     1.840     2.121
   103   1 H        0.804     0.362     0.560     1.176
   104   1 H        0.803     0.369     0.547     1.161
   105   1 H        0.924     0.103     1.756     2.072
   106   1 H        0.924     0.080     1.978     2.200
   107   1 H        0.926     0.087     1.906     2.159
   108   1 H        0.926     0.081     1.972     2.196
   109   1 H        0.926     0.076     2.024     2.225
   110   1 H        0.926     0.075     2.035     2.231
   111   1 H        0.924     0.065     2.147     2.291
   112   1 H        0.924     0.080     1.979     2.200
   113   1 H        0.923     0.057     2.234     2.338
   114   1 H        0.926     0.057     2.239     2.340
   115   1 H        0.804     0.339     0.616     1.233
   116   1 H        0.926     0.031     2.576     2.510
   117   1 H        0.926     0.048     2.347     2.396
   118   1 H        0.926     0.014     2.823     2.627
   119   1 H        0.924     0.040     2.449     2.447
   120   1 H        0.924     0.034     2.528     2.486
   121   1 H        0.924     0.029     2.596     2.520
   122   1 H        0.924     0.027     2.626     2.534
   123   1 H        0.924     0.041     2.440     2.443
   124   1 H        0.924     0.033     2.543     2.494
   125   1 H        0.924     0.020     2.734     2.586
   126   1 H        0.923     0.036     2.503     2.474
   127   1 H        0.924     0.033     2.542     2.493
   128   1 H        0.924     0.034     2.529     2.487
   129   1 H        0.924     0.039     2.467     2.456
   130   1 H        0.804     0.365     0.554     1.170
   131   1 H        0.804     0.361     0.563     1.179
   132   1 H        0.923     0.004     2.992     2.705
   133   1 H        0.923     0.062     2.180     2.309
   134   1 H        0.923     0.028     2.611     2.527
   135   1 H        0.923     0.053     2.288     2.366
   136   1 H        0.924    -0.001     3.078     2.744
   137   1 H        0.924     0.091     1.872     2.140
   138   1 H        0.924     0.046     2.375     2.410
   139   1 H        0.803     0.369     0.545     1.160
   140   1 H        0.804     0.369     0.545     1.160
   141   1 H        0.804     0.359     0.568     1.184
   142   1 H        0.802     0.319     0.668     1.284
   143   1 H        0.926     0.066     2.127     2.280
   144   1 H        0.926     0.062     2.174     2.306
   145   1 H        0.926     0.067     2.114     2.274
   146   1 H        0.926     0.061     2.185     2.311
   147   1 H        0.926     0.042     2.422     2.433
   148   1 H        0.926     0.049     2.336     2.390
   149   1 H        0.926     0.062     2.170     2.304
   150   1 H        0.926     0.053     2.278     2.360
   151   1 H        0.924     0.040     2.452     2.449
   152   1 H        0.924     0.065     2.137     2.286
   153   1 H        0.926     0.033     2.547     2.496
   154   1 H        0.926     0.047     2.355     2.400
   155   1 H        0.926     0.038     2.473     2.459
   156   1 H        0.926     0.039     2.459     2.452
   157   1 H        0.926     0.043     2.415     2.430

 Mol. C6AA /au·bohr⁶  :     253614.913916
 Mol. C8AA /au·bohr⁸  :    5866524.258882
 Mol. α(0) /au        :        765.393023


Wiberg/Mayer (AO) data.
largest (>0.10) Wiberg bond orders for each atom

 ---------------------------------------------------------------------------
     #   Z sym  total        # sym  WBO       # sym  WBO       # sym  WBO
 ---------------------------------------------------------------------------
     1   6 C    3.941 --     6 C    1.390     2 C    1.338    51 O    1.065
     2   6 C    3.975 --     3 C    1.392     1 C    1.338     7 C    0.992
     3   6 C    3.988 --     4 C    1.431     2 C    1.392    13 C    1.002
     4   6 C    3.983 --     3 C    1.431     5 C    1.359    84 H    0.963
     5   6 C    3.945 --     6 C    1.377     4 C    1.359    52 O    1.079
     6   6 C    3.974 --     1 C    1.390     5 C    1.377    85 H    0.959
     7   6 C    3.937 --     2 C    0.992    86 H    0.951     8 C    0.951
                            12 O    0.947
     8   6 C    3.950 --    15 O    0.996     9 C    0.962     7 C    0.951
                            87 H    0.947
     9   6 C    3.928 --    10 C    0.969     8 C    0.962    88 H    0.954
                            17 O    0.938
    10   6 C    3.935 --     9 C    0.969    16 O    0.963    11 C    0.959
                            89 H    0.953
    11   6 C    3.944 --    18 C    0.981    12 O    0.968    10 C    0.959
                            90 H    0.947
    12   8 O    2.061 --    11 C    0.968     7 C    0.947
    13   6 C    3.955 --     3 C    1.002    14 O    0.981    91 H    0.967
                            92 H    0.961
    14   8 O    1.924 --    13 C    0.981    93 H    0.864
    15   8 O    1.936 --     8 C    0.996    94 H    0.841
    16   8 O    2.088 --    20 C    0.984    10 C    0.963
    17   8 O    2.264 --    33 C    1.088     9 C    0.938    35 O    0.142
    18   6 C    3.960 --    19 O    1.013    11 C    0.981    96 H    0.967
                            95 H    0.966
    19   8 O    1.930 --    18 C    1.013    97 H    0.856
    20   6 C    3.929 --    16 O    0.984    21 O    0.960    25 C    0.953
                            98 H    0.938
    21   8 O    2.062 --    20 C    0.960    22 C    0.950
    22   6 C    3.939 --    29 C    0.984    23 C    0.969    21 O    0.950
                            99 H    0.948
    23   6 C    3.968 --    28 O    1.009    22 C    0.969    24 C    0.967
                           100 H    0.956
    24   6 C    3.960 --    26 O    1.000    23 C    0.967    25 C    0.962
                           101 H    0.952
    25   6 C    3.934 --    27 O    0.962    24 C    0.962    20 C    0.953
                           102 H    0.953
    26   8 O    1.933 --    24 C    1.000   103 H    0.851
    27   8 O    2.086 --    53 C    0.984    25 C    0.962
    28   8 O    1.924 --    23 C    1.009   104 H    0.842
    29   6 C    3.929 --    22 C    0.984    30 O    0.963   105 H    0.962
                           106 H    0.960
    30   8 O    2.271 --    31 C    1.082    29 C    0.963    32 O    0.147
    31   6 C    3.895 --    32 O    1.682    30 O    1.082    64 C    1.037
    32   8 O    1.987 --    31 C    1.682    30 O    0.147
    33   6 C    3.893 --    35 O    1.592    17 O    1.088    34 C    1.087
    34   6 C    3.963 --    36 C    1.689    33 C    1.087   107 H    0.957
                            38 C    0.110
    35   8 O    1.982 --    33 C    1.592    17 O    0.142
    36   6 C    3.969 --    34 C    1.689    37 C    1.172   108 H    0.950
    37   6 C    3.984 --    38 C    1.753    36 C    1.172   109 H    0.957
    38   6 C    3.967 --    37 C    1.753    39 C    1.049   110 H    0.961
                            34 C    0.110
    39   6 C    3.983 --    38 C    1.049   111 H    0.968   112 H    0.959
                            40 C    0.929
    40   6 C    3.941 --    41 C    1.008    42 O    0.988   113 H    0.954
                            39 C    0.929
    41   6 C    3.977 --    43 C    1.842    40 C    1.008   114 H    0.962
                            45 C    0.108
    42   8 O    1.935 --    40 C    0.988   115 H    0.869
    43   6 C    3.991 --    41 C    1.842    44 C    1.107   116 H    0.960
    44   6 C    3.988 --    45 C    1.842    43 C    1.107   117 H    0.956
    45   6 C    3.985 --    44 C    1.842    46 C    1.031   118 H    0.964
                            41 C    0.108
    46   6 C    3.996 --    45 C    1.031    47 C    0.982   119 H    0.972
                           120 H    0.966
    47   6 C    3.988 --    48 C    1.006    46 C    0.982   122 H    0.974
                           121 H    0.972
    48   6 C    3.994 --    47 C    1.006    49 C    1.006   124 H    0.976
                           123 H    0.969
    49   6 C    3.996 --    50 C    1.021    48 C    1.006   125 H    0.977
                           126 H    0.974
    50   6 C    3.996 --    49 C    1.021   128 H    0.987   127 H    0.987
                           129 H    0.980
    51   8 O    2.082 --     1 C    1.065   130 H    0.846
    52   8 O    2.090 --     5 C    1.079   131 H    0.850
    53   6 C    3.920 --    27 O    0.984    54 C    0.956    58 O    0.950
                           132 H    0.943
    54   6 C    3.959 --    62 O    1.001    55 C    0.968    53 C    0.956
                           133 H    0.955
    55   6 C    3.967 --    61 O    1.005    54 C    0.968    56 C    0.966
                           134 H    0.957
    56   6 C    3.968 --    60 O    1.010    57 C    0.968    55 C    0.966
                           135 H    0.951
    57   6 C    3.933 --    59 C    0.977    56 C    0.968    58 O    0.948
                           136 H    0.942
    58   8 O    2.052 --    53 C    0.950    57 C    0.948
    59   6 C    3.953 --    63 O    1.011    57 C    0.977   137 H    0.965
                           138 H    0.961
    60   8 O    1.925 --    56 C    1.010   139 H    0.841
    61   8 O    1.933 --    55 C    1.005   140 H    0.847
    62   8 O    1.926 --    54 C    1.001   141 H    0.852
    63   8 O    1.944 --    59 C    1.011   142 H    0.848
    64   6 C    3.975 --    69 C    1.363    65 C    1.362    31 C    1.037
    65   6 C    3.985 --    66 C    1.475    64 C    1.362   143 H    0.962
    66   6 C    3.986 --    65 C    1.475    67 C    1.370   144 H    0.964
    67   6 C    3.984 --    66 C    1.370    68 C    1.366    70 C    1.061
    68   6 C    3.985 --    69 C    1.476    67 C    1.366   145 H    0.959
    69   6 C    3.987 --    68 C    1.476    64 C    1.363   146 H    0.957
    70   6 C    3.985 --    71 C    1.375    75 C    1.367    67 C    1.061
    71   6 C    3.987 --    72 C    1.465    70 C    1.375   147 H    0.965
                            74 C    0.100
    72   6 C    3.988 --    71 C    1.465    73 C    1.366   148 H    0.961
    73   6 C    3.925 --    72 C    1.366    74 C    1.355    76 O    1.042
    74   6 C    3.986 --    75 C    1.479    73 C    1.355   149 H    0.965
                            71 C    0.100
    75   6 C    3.986 --    74 C    1.479    70 C    1.367   150 H    0.965
    76   8 O    2.187 --    73 C    1.042    77 C    0.960
    77   6 C    3.941 --    78 C    1.000   151 H    0.965    76 O    0.960
                           152 H    0.952
    78   6 C    3.987 --    83 C    1.416    79 C    1.409    77 C    1.000
                            81 C    0.109
    79   6 C    3.991 --    80 C    1.446    78 C    1.409   153 H    0.969
                            82 C    0.112
    80   6 C    3.991 --    79 C    1.446    81 C    1.436   154 H    0.969
                            83 C    0.111
    81   6 C    3.992 --    82 C    1.439    80 C    1.436   155 H    0.970
                            78 C    0.109
    82   6 C    3.992 --    83 C    1.442    81 C    1.439   156 H    0.970
                            79 C    0.112
    83   6 C    3.992 --    82 C    1.442    78 C    1.416   157 H    0.967
                            80 C    0.111
    84   1 H    0.994 --     4 C    0.963
    85   1 H    0.995 --     6 C    0.959
    86   1 H    0.998 --     7 C    0.951
    87   1 H    0.995 --     8 C    0.947
    88   1 H    0.999 --     9 C    0.954
    89   1 H    0.993 --    10 C    0.953
    90   1 H    0.997 --    11 C    0.947
    91   1 H    0.998 --    13 C    0.967
    92   1 H    0.999 --    13 C    0.961
    93   1 H    0.878 --    14 O    0.864
    94   1 H    0.896 --    15 O    0.841
    95   1 H    0.998 --    18 C    0.966
    96   1 H    0.995 --    18 C    0.967
    97   1 H    0.876 --    19 O    0.856
    98   1 H    1.000 --    20 C    0.938
    99   1 H    0.999 --    22 C    0.948
   100   1 H    0.997 --    23 C    0.956
   101   1 H    0.997 --    24 C    0.952
   102   1 H    0.991 --    25 C    0.953
   103   1 H    0.868 --    26 O    0.851
   104   1 H    0.864 --    28 O    0.842
   105   1 H    0.989 --    29 C    0.962
   106   1 H    0.993 --    29 C    0.960
   107   1 H    0.992 --    34 C    0.957
   108   1 H    0.993 --    36 C    0.950
   109   1 H    0.994 --    37 C    0.957
   110   1 H    0.994 --    38 C    0.961
   111   1 H    0.995 --    39 C    0.968
   112   1 H    0.989 --    39 C    0.959
   113   1 H    0.996 --    40 C    0.954
   114   1 H    0.997 --    41 C    0.962
   115   1 H    0.885 --    42 O    0.869
   116   1 H    0.999 --    43 C    0.960
   117   1 H    0.998 --    44 C    0.956
   118   1 H    1.000 --    45 C    0.964
   119   1 H    0.998 --    46 C    0.972
   120   1 H    0.997 --    46 C    0.966
   121   1 H    0.999 --    47 C    0.972
   122   1 H    0.999 --    47 C    0.974
   123   1 H    0.998 --    48 C    0.969
   124   1 H    0.999 --    48 C    0.976
   125   1 H    1.000 --    49 C    0.977
   126   1 H    0.998 --    49 C    0.974
   127   1 H    0.999 --    50 C    0.987
   128   1 H    0.999 --    50 C    0.987
   129   1 H    0.998 --    50 C    0.980
   130   1 H    0.866 --    51 O    0.846
   131   1 H    0.869 --    52 O    0.850
   132   1 H    1.000 --    53 C    0.943
   133   1 H    0.996 --    54 C    0.955
   134   1 H    0.999 --    55 C    0.957
   135   1 H    0.997 --    56 C    0.951
   136   1 H    1.000 --    57 C    0.942
   137   1 H    0.992 --    59 C    0.965
   138   1 H    0.998 --    59 C    0.961
   139   1 H    0.864 --    60 O    0.841
   140   1 H    0.863 --    61 O    0.847
   141   1 H    0.871 --    62 O    0.852
   142   1 H    0.898 --    63 O    0.848
   143   1 H    0.995 --    65 C    0.962
   144   1 H    0.996 --    66 C    0.964
   145   1 H    0.995 --    68 C    0.959
   146   1 H    0.996 --    69 C    0.957
   147   1 H    0.998 --    71 C    0.965
   148   1 H    0.997 --    72 C    0.961
   149   1 H    0.996 --    74 C    0.965
   150   1 H    0.997 --    75 C    0.965
   151   1 H    0.998 --    77 C    0.965
   152   1 H    0.995 --    77 C    0.952
   153   1 H    0.999 --    79 C    0.969
   154   1 H    0.997 --    80 C    0.969
   155   1 H    0.998 --    81 C    0.970
   156   1 H    0.998 --    82 C    0.970
   157   1 H    0.998 --    83 C    0.967
 ---------------------------------------------------------------------------

Topologies differ in total number of bonds
Writing topology from bond orders to xtbtopo.mol

molecular dipole:
                 x           y           z       tot (Debye)
 q only:       -2.761      -1.175      -1.921
   full:       -2.264      -1.242      -2.233       8.677
molecular quadrupole (traceless):
                xx          xy          yy          xz          yz          zz
 q only:      -27.114     -15.765      42.459     -22.213      39.923     -15.345
  q+dip:      -37.627     -23.316      36.409     -21.140      47.962       1.219
   full:      -34.178     -22.743      34.197     -25.166      49.754      -0.019


           -------------------------------------------------
          | TOTAL ENERGY             -257.871004449126 Eh   |
          | GRADIENT NORM               0.130968698379 Eh/α |
          | HOMO-LUMO GAP               1.469391958146 eV   |
           -------------------------------------------------

------------------------------------------------------------------------
 * finished run on 2026/06/19 at 18:53:00.273     
------------------------------------------------------------------------
 total:
 * wall-time:     0 d,  0 h,  0 min,  0.354 sec
 *  cpu-time:     0 d,  0 h,  0 min,  5.432 sec
 * ratio c/w:    15.329 speedup
 SCF:
 * wall-time:     0 d,  0 h,  0 min,  0.297 sec
 *  cpu-time:     0 d,  0 h,  0 min,  4.685 sec
 * ratio c/w:    15.783 speedup

normal termination of xtb
