      -----------------------------------------------------------      
     |                   =====================                   |     
     |                           x T B                           |     
     |                   =====================                   |     
     |                         S. Grimme                         |     
     |          Mulliken Center for Theoretical Chemistry        |     
     |                    University of Bonn                     |     
      -----------------------------------------------------------      

   * xtb version 6.7.1 (edcfbbe) compiled by 'albert@albert-system' on 2024-07-22

   xtb is free software: you can redistribute it and/or modify it under
   the terms of the GNU Lesser General Public License as published by
   the Free Software Foundation, either version 3 of the License, or
   (at your option) any later version.
   
   xtb is distributed in the hope that it will be useful,
   but WITHOUT ANY WARRANTY; without even the implied warranty of
   MERCHANTABILITY or FITNESS FOR A PARTICULAR PURPOSE.  See the
   GNU Lesser General Public License for more details.
   
   Cite this work as:
   * C. Bannwarth, E. Caldeweyher, S. Ehlert, A. Hansen, P. Pracht,
     J. Seibert, S. Spicher, S. Grimme, WIREs Comput. Mol. Sci., 2020, 11,
     e01493. DOI: 10.1002/wcms.1493
   
   for GFN2-xTB:
   * C. Bannwarth, S. Ehlert and S. Grimme., J. Chem. Theory Comput., 2019,
     15, 1652-1671. DOI: 10.1021/acs.jctc.8b01176
   for GFN1-xTB:
   * S. Grimme, C. Bannwarth, P. Shushkov, J. Chem. Theory Comput., 2017,
     13, 1989-2009. DOI: 10.1021/acs.jctc.7b00118
   for GFN0-xTB:
   * P. Pracht, E. Caldeweyher, S. Ehlert, S. Grimme, ChemRxiv, 2019, preprint.
     DOI: 10.26434/chemrxiv.8326202.v1
   for GFN-FF:
   * S. Spicher and S. Grimme, Angew. Chem. Int. Ed., 2020, 59, 15665-15673.
     DOI: 10.1002/anie.202004239
   
   for ALPB and GBSA implicit solvation:
   * S. Ehlert, M. Stahn, S. Spicher, S. Grimme, J. Chem. Theory Comput.,
     2021, 17, 4250-4261. DOI: 10.1021/acs.jctc.1c00471
   
   for ddCOSMO and CPCM-X implicit solvation:
   * M. Stahn, S. Ehlert, S. Grimme, J. Phys. Chem. A,
     2023, XX, XXXX-XXXX. DOI: 10.1021/acs.jpca.3c04382
   
   for DFT-D4:
   * E. Caldeweyher, C. Bannwarth and S. Grimme, J. Chem. Phys., 2017,
     147, 034112. DOI: 10.1063/1.4993215
   * E. Caldeweyher, S. Ehlert, A. Hansen, H. Neugebauer, S. Spicher,
     C. Bannwarth and S. Grimme, J. Chem. Phys., 2019, 150, 154122.
     DOI: 10.1063/1.5090222
   * E. Caldeweyher, J.-M. Mewes, S. Ehlert and S. Grimme, Phys. Chem. Chem. Phys.
     2020, 22, 8499-8512. DOI: 10.1039/D0CP00502A
   
   for sTDA-xTB:
   * S. Grimme and C. Bannwarth, J. Chem. Phys., 2016, 145, 054103.
     DOI: 10.1063/1.4959605
   
   in the mass-spec context:
   * V. Asgeirsson, C. Bauer and S. Grimme, Chem. Sci., 2017, 8, 4879.
     DOI: 10.1039/c7sc00601b
   * J. Koopman and S. Grimme, ACS Omega 2019, 4, 12, 15120-15133.
     DOI: 10.1021/acsomega.9b02011
   
   for metadynamics refer to:
   * S. Grimme, J. Chem. Theory Comput., 2019, 155, 2847-2862
     DOI: 10.1021/acs.jctc.9b00143
   
   for SPH calculations refer to:
   * S. Spicher and S. Grimme, J. Chem. Theory Comput., 2021, 17, 1701-1714
     DOI: 10.1021/acs.jctc.0c01306
   
   for ONIOM refer to:
   * C. Plett, A. Katbashev, S. Ehlert, S. Grimme, M. Bursch,
     Phys. Chem. Chem. Phys., 2023, 25, 17860-17868. DOI: 10.1039/D3CP02178E
   
   for DIPRO refer to:
   * J. Kohn, N. Gildemeister, S. Grimme, D. Fazzi, A. Hansen,
     J. Chem. Phys., 2023, just accepted.
   
   for PTB refer to:
   * S. Grimme, M. Mueller, A. Hansen, J. Chem. Phys., 2023, 158, 124111.
     DOI: 10.1063/5.0137838
   
   with help from (in alphabetical order)
   P. Atkinson, C. Bannwarth, F. Bohle, G. Brandenburg, E. Caldeweyher
   M. Checinski, S. Dohm, S. Ehlert, S. Ehrlich, I. Gerasimov, C. Hölzer
   A. Katbashev, J. Kohn, J. Koopman, C. Lavigne, S. Lehtola, F. März, M. Müller,
   F. Musil, H. Neugebauer, J. Pisarek, C. Plett, P. Pracht, F. Pultar,
   J. Seibert, P. Shushkov, S. Spicher, M. Stahn, M. Steiner, T. Strunk,
   J. Stückrath, T. Rose, and J. Unsleber
   
 * started run on 2026/06/19 at 18:53:00.654     
   ID    Z sym.   atoms
    1    6 C      1-11, 13, 18, 20, 22-25, 29, 31, 33, 34, 36-41, 43-50,
                  53-57, 59, 64-75, 77-83
    2    8 O      12, 14-17, 19, 21, 26-28, 30, 32, 35, 42, 51, 52, 58,
                  60-63, 76
    3    1 H      84-157

           -------------------------------------------------
          |                Calculation Setup                |
           -------------------------------------------------

          program call               : xtb PAPU-0088/conf03.xyz --gfn 2 --alpb octanol --chrg 0 --uhf 0 --namespace PAPU-0088/conf03_octanol
          hostname                   : cpu10
          calculation namespace      : PAPU-0088/conf03_octanol
          coordinate file            : PAPU-0088/conf03.xyz
          omp threads                :                    16


           -------------------------------------------------
          |                 G F N 2 - x T B                 |
           -------------------------------------------------

        Reference                      10.1021/acs.jctc.8b01176
      * Hamiltonian:
        H0-scaling (s, p, d)           1.850000    2.230000    2.230000
        zeta-weighting                 0.500000
      * Dispersion:
        s8                             2.700000
        a1                             0.520000
        a2                             5.000000
        s9                             5.000000
      * Repulsion:
        kExp                           1.500000    1.000000
        rExp                           1.000000
      * Coulomb:
        alpha                          2.000000
        third order                    shell-resolved
        anisotropic                    true
        a3                             3.000000
        a5                             4.000000
        cn-shift                       1.200000
        cn-exp                         4.000000
        max-rad                        5.000000

      * Solvation model:               ALPB
        Solvent                        octanol
        Parameter file                 internal GFN2-xTB/ALPB
        Dielectric constant                9.8629E+00
        Reference state                gsolv [1 M gas/solution]
        Free energy shift                  2.3397E-03 Eh       1.4682E+00 kcal/mol
        Temperature                        2.9815E+02 K
        Density                            8.3000E-01 kg/L
        Solvent mass                       1.3023E+02 g/mol
        Interaction kernel             P16
        Born radius scaling (c1)           1.5898E+00
        Born radii integrator          GBOBC
        Born offset                        0.0000E+00 a0       0.0000E+00 AA
        H-bond correction              true
        Ion screening                  false
        Surface tension                    1.0000E-05 Eh       1.5569E+01 dyn/cm
        Grid points                               230 per atom

          ...................................................
          :                      SETUP                      :
          :.................................................:
          :  # basis functions                 406          :
          :  # atomic orbitals                 406          :
          :  # shells                          240          :
          :  # electrons                       450          :
          :  max. iterations                   250          :
          :  Hamiltonian                  GFN2-xTB          :
          :  restarted?                      false          :
          :  GBSA solvation                   true          :
          :  PC potential                    false          :
          :  electronic temp.          300.0000000     K    :
          :  accuracy                    1.0000000          :
          :  -> integral cutoff          0.2500000E+02      :
          :  -> integral neglect         0.1000000E-07      :
          :  -> SCF convergence          0.1000000E-05 Eh   :
          :  -> wf. convergence          0.1000000E-03 e    :
          :  Broyden damping             0.4000000          :
          :  net charge                          0          :
          :  unpaired electrons                  0          :
          ...................................................

 iter      E             dE          RMSdq      gap      omega  full diag
   1   -260.5706987 -0.260571E+03  0.459E+00    2.26       0.0  T
   2   -260.8177260 -0.247027E+00  0.255E+00    1.60       1.0  T
   3   -260.7939518  0.237742E-01  0.105E+00    1.64       1.0  T
   4   -260.8421539 -0.482020E-01  0.304E-01    1.38       1.0  T
   5   -260.8485598 -0.640593E-02  0.130E-01    1.39       1.0  T
   6   -260.8496075 -0.104774E-02  0.617E-02    1.40       1.0  T
   7   -260.8497517 -0.144137E-03  0.276E-02    1.41       1.0  T
   8   -260.8497849 -0.332539E-04  0.106E-02    1.41       1.0  T
   9   -260.8497887 -0.380471E-05  0.510E-03    1.41       1.6  T
  10   -260.8497899 -0.115002E-05  0.283E-03    1.41       2.8  T
  11   -260.8497903 -0.428620E-06  0.139E-03    1.41       5.7  T
  12   -260.8497904 -0.528738E-07  0.578E-04    1.41      13.8  T
  13   -260.8497904 -0.206921E-07  0.250E-04    1.41      31.9  T

   *** convergence criteria satisfied after 13 iterations ***

         #    Occupation            Energy/Eh            Energy/eV
      -------------------------------------------------------------
         1        2.0000           -0.7799682             -21.2240
       ...           ...                  ...                  ...
       219        2.0000           -0.4065363             -11.0624
       220        2.0000           -0.4015410             -10.9265
       221        2.0000           -0.3995180             -10.8714
       222        2.0000           -0.3950943             -10.7511
       223        2.0000           -0.3884488             -10.5702
       224        2.0000           -0.3793939             -10.3238
       225        2.0000           -0.3714508             -10.1077 (HOMO)
       226                         -0.3196202              -8.6973 (LUMO)
       227                         -0.2878689              -7.8333
       228                         -0.2439093              -6.6371
       229                         -0.2382571              -6.4833
       230                         -0.2357888              -6.4161
       ...                                ...                  ...
       406                          0.6887647              18.7422
      -------------------------------------------------------------
                  HL-Gap            0.0518306 Eh            1.4104 eV
             Fermi-level           -0.3455355 Eh           -9.4025 eV

 SCC (total)                   0 d,  0 h,  0 min,  0.291 sec
 SCC setup                      ...        0 min,  0.004 sec (  1.400%)
 Dispersion                     ...        0 min,  0.005 sec (  1.755%)
 classical contributions        ...        0 min,  0.000 sec (  0.063%)
 integral evaluation            ...        0 min,  0.013 sec (  4.554%)
 iterations                     ...        0 min,  0.221 sec ( 76.044%)
 molecular gradient             ...        0 min,  0.044 sec ( 15.190%)
 printout                       ...        0 min,  0.003 sec (  0.980%)

         :::::::::::::::::::::::::::::::::::::::::::::::::::::
         ::                     SUMMARY                     ::
         :::::::::::::::::::::::::::::::::::::::::::::::::::::
         :: total energy            -257.874714546625 Eh    ::
         :: total w/o Gsasa/hb      -257.787646476791 Eh    ::
         :: gradient norm              0.125475469132 Eh/a0 ::
         :: HOMO-LUMO gap              1.410382520630 eV    ::
         ::.................................................::
         :: SCC energy              -260.830231625042 Eh    ::
         :: -> isotropic ES            0.561195669323 Eh    ::
         :: -> anisotropic ES         -0.023113727066 Eh    ::
         :: -> anisotropic XC          0.029166637731 Eh    ::
         :: -> dispersion             -0.226234396592 Eh    ::
         :: -> Gsolv                  -0.125603871198 Eh    ::
         ::    -> Gelec               -0.038535801364 Eh    ::
         ::    -> Gsasa               -0.033908984982 Eh    ::
         ::    -> Ghb                 -0.055498754228 Eh    ::
         ::    -> Gshift               0.002339669376 Eh    ::
         :: repulsion energy           2.955517078417 Eh    ::
         :: add. restraining           0.000000000000 Eh    ::
         :: total charge               0.000000000000 e     ::
         :::::::::::::::::::::::::::::::::::::::::::::::::::::

           -------------------------------------------------
          |                Property Printout                |
           -------------------------------------------------

    * Orbital Energies and Occupations

         #    Occupation            Energy/Eh            Energy/eV
      -------------------------------------------------------------
         1        2.0000           -0.7799682             -21.2240
       ...           ...                  ...                  ...
       213        2.0000           -0.4156324             -11.3099
       214        2.0000           -0.4140266             -11.2662
       215        2.0000           -0.4131390             -11.2421
       216        2.0000           -0.4114351             -11.1957
       217        2.0000           -0.4100477             -11.1580
       218        2.0000           -0.4080196             -11.1028
       219        2.0000           -0.4065363             -11.0624
       220        2.0000           -0.4015410             -10.9265
       221        2.0000           -0.3995180             -10.8714
       222        2.0000           -0.3950943             -10.7511
       223        2.0000           -0.3884488             -10.5702
       224        2.0000           -0.3793939             -10.3238
       225        2.0000           -0.3714508             -10.1077 (HOMO)
       226                         -0.3196202              -8.6973 (LUMO)
       227                         -0.2878689              -7.8333
       228                         -0.2439093              -6.6371
       229                         -0.2382571              -6.4833
       230                         -0.2357888              -6.4161
       231                         -0.2333520              -6.3498
       232                         -0.2310868              -6.2882
       233                         -0.2296907              -6.2502
       234                         -0.2260524              -6.1512
       235                         -0.2200038              -5.9866
       236                         -0.2174490              -5.9171
       ...                                ...                  ...
       406                          0.6887647              18.7422
      -------------------------------------------------------------
                  HL-Gap            0.0518306 Eh            1.4104 eV
             Fermi-level           -0.3455355 Eh           -9.4025 eV

     #   Z          covCN         q      C6AA      α(0)
     1   6 C        2.841     0.141    24.912     8.180
     2   6 C        2.974    -0.029    28.713     8.790
     3   6 C        2.965     0.012    27.741     8.639
     4   6 C        2.929    -0.072    29.789     8.951
     5   6 C        2.839     0.151    24.717     8.147
     6   6 C        2.920    -0.117    30.976     9.127
     7   6 C        3.744     0.104    18.936     6.208
     8   6 C        3.722     0.092    19.161     6.251
     9   6 C        3.764     0.109    18.825     6.184
    10   6 C        3.744     0.092    19.125     6.239
    11   6 C        3.741     0.085    19.239     6.258
    12   8 O        1.695    -0.349    19.873     6.019
    13   6 C        3.681     0.074    19.546     6.331
    14   8 O        1.653    -0.495    22.788     6.444
    15   8 O        1.651    -0.475    22.372     6.385
    16   8 O        1.698    -0.326    19.460     5.956
    17   8 O        1.702    -0.299    18.975     5.881
    18   6 C        3.675     0.073    19.582     6.341
    19   8 O        1.654    -0.474    22.347     6.381
    20   6 C        3.645     0.251    17.024     5.930
    21   8 O        1.696    -0.352    19.936     6.028
    22   6 C        3.753     0.114    18.762     6.177
    23   6 C        3.721     0.092    19.168     6.253
    24   6 C        3.721     0.082    19.323     6.278
    25   6 C        3.751     0.083    19.256     6.258
    26   8 O        1.654    -0.481    22.486     6.401
    27   8 O        1.699    -0.323    19.397     5.946
    28   8 O        1.653    -0.480    22.477     6.400
    29   6 C        3.736     0.068    19.518     6.305
    30   8 O        1.703    -0.276    18.582     5.820
    31   6 C        2.757     0.351    21.042     7.512
    32   8 O        0.857    -0.462    22.968     6.425
    33   6 C        2.739     0.355    20.976     7.499
    34   6 C        2.897    -0.096    30.425     9.044
    35   8 O        0.858    -0.486    23.469     6.495
    36   6 C        2.904    -0.002    28.070     8.687
    37   6 C        2.899    -0.043    29.057     8.838
    38   6 C        2.895    -0.017    28.426     8.742
    39   6 C        3.807    -0.083    22.078     6.689
    40   6 C        3.727     0.125    18.640     6.164
    41   6 C        2.896    -0.058    29.429     8.894
    42   8 O        1.652    -0.494    22.766     6.441
    43   6 C        2.898    -0.040    28.982     8.827
    44   6 C        2.898    -0.055    29.357     8.884
    45   6 C        2.895    -0.033    28.819     8.802
    46   6 C        3.804    -0.058    21.617     6.619
    47   6 C        3.801    -0.065    21.755     6.641
    48   6 C        3.801    -0.057    21.601     6.617
    49   6 C        3.799    -0.053    21.519     6.605
    50   6 C        3.751    -0.107    22.609     6.781
    51   8 O        1.656    -0.443    21.692     6.287
    52   8 O        1.657    -0.431    21.457     6.253
    53   6 C        3.648     0.238    17.196     5.958
    54   6 C        3.722     0.084    19.294     6.273
    55   6 C        3.724     0.094    19.128     6.245
    56   6 C        3.721     0.088    19.223     6.262
    57   6 C        3.740     0.102    18.968     6.214
    58   8 O        1.696    -0.363    20.124     6.057
    59   6 C        3.674     0.077    19.524     6.332
    60   8 O        1.653    -0.480    22.477     6.400
    61   8 O        1.654    -0.476    22.377     6.386
    62   8 O        1.654    -0.481    22.484     6.401
    63   8 O        1.654    -0.483    22.527     6.407
    64   6 C        2.975    -0.028    28.692     8.786
    65   6 C        2.926    -0.029    28.716     8.788
    66   6 C        2.928    -0.032    28.789     8.799
    67   6 C        2.976     0.023    27.489     8.600
    68   6 C        2.925    -0.036    28.908     8.817
    69   6 C        2.925    -0.018    28.450     8.747
    70   6 C        2.976    -0.000    28.026     8.684
    71   6 C        2.923    -0.033    28.820     8.804
    72   6 C        2.919    -0.062    29.550     8.914
    73   6 C        2.860     0.144    24.854     8.172
    74   6 C        2.921    -0.053    29.312     8.878
    75   6 C        2.923    -0.035    28.880     8.813
    76   8 O        1.700    -0.300    18.998     5.885
    77   6 C        3.701     0.072    19.524     6.318
    78   6 C        2.971    -0.001    28.059     8.689
    79   6 C        2.929    -0.045    29.111     8.848
    80   6 C        2.922    -0.033    28.830     8.805
    81   6 C        2.925    -0.033    28.826     8.805
    82   6 C        2.922    -0.032    28.799     8.800
    83   6 C        2.930    -0.035    28.872     8.812
    84   1 H        0.926     0.076     2.021     2.223
    85   1 H        0.926     0.067     2.120     2.277
    86   1 H        0.924     0.045     2.387     2.416
    87   1 H        0.923     0.070     2.086     2.259
    88   1 H        0.924     0.030     2.588     2.516
    89   1 H        0.923     0.078     2.002     2.213
    90   1 H        0.924     0.054     2.267     2.355
    91   1 H        0.924     0.040     2.448     2.447
    92   1 H        0.924     0.036     2.503     2.474
    93   1 H        0.804     0.347     0.594     1.211
    94   1 H        0.802     0.319     0.666     1.282
    95   1 H        0.924     0.044     2.393     2.419
    96   1 H        0.924     0.068     2.108     2.270
    97   1 H        0.803     0.352     0.585     1.201
    98   1 H        0.924    -0.000     3.065     2.738
    99   1 H        0.923     0.027     2.630     2.536
   100   1 H        0.923     0.050     2.323     2.384
   101   1 H        0.923     0.065     2.145     2.290
   102   1 H        0.924     0.093     1.846     2.125
   103   1 H        0.804     0.362     0.561     1.177
   104   1 H        0.803     0.368     0.547     1.162
   105   1 H        0.924     0.102     1.767     2.079
   106   1 H        0.924     0.080     1.984     2.203
   107   1 H        0.926     0.084     1.934     2.175
   108   1 H        0.926     0.077     2.015     2.220
   109   1 H        0.926     0.076     2.022     2.224
   110   1 H        0.926     0.072     2.068     2.249
   111   1 H        0.924     0.072     2.059     2.244
   112   1 H        0.924     0.068     2.109     2.271
   113   1 H        0.923     0.026     2.643     2.542
   114   1 H        0.926     0.060     2.197     2.318
   115   1 H        0.804     0.339     0.614     1.231
   116   1 H        0.926     0.030     2.585     2.514
   117   1 H        0.926     0.042     2.424     2.435
   118   1 H        0.926     0.032     2.561     2.503
   119   1 H        0.924     0.044     2.393     2.419
   120   1 H        0.924     0.042     2.422     2.434
   121   1 H        0.924     0.036     2.506     2.476
   122   1 H        0.924     0.044     2.391     2.418
   123   1 H        0.924     0.030     2.592     2.518
   124   1 H        0.924     0.023     2.685     2.563
   125   1 H        0.924     0.021     2.723     2.580
   126   1 H        0.924     0.032     2.556     2.500
   127   1 H        0.924     0.031     2.567     2.506
   128   1 H        0.924     0.044     2.398     2.422
   129   1 H        0.924     0.034     2.529     2.487
   130   1 H        0.804     0.365     0.555     1.170
   131   1 H        0.804     0.361     0.563     1.179
   132   1 H        0.923     0.003     3.009     2.713
   133   1 H        0.923     0.061     2.183     2.310
   134   1 H        0.923     0.031     2.576     2.510
   135   1 H        0.923     0.050     2.320     2.382
   136   1 H        0.924     0.011     2.877     2.653
   137   1 H        0.924     0.062     2.172     2.305
   138   1 H        0.924     0.049     2.327     2.386
   139   1 H        0.803     0.374     0.536     1.150
   140   1 H        0.804     0.370     0.544     1.159
   141   1 H        0.804     0.360     0.566     1.182
   142   1 H        0.803     0.359     0.568     1.184
   143   1 H        0.926     0.061     2.185     2.312
   144   1 H        0.926     0.067     2.121     2.278
   145   1 H        0.926     0.059     2.207     2.323
   146   1 H        0.926     0.056     2.246     2.343
   147   1 H        0.926     0.040     2.452     2.449
   148   1 H        0.926     0.049     2.329     2.387
   149   1 H        0.926     0.062     2.172     2.305
   150   1 H        0.926     0.053     2.282     2.362
   151   1 H        0.924     0.039     2.468     2.457
   152   1 H        0.924     0.064     2.147     2.292
   153   1 H        0.926     0.031     2.575     2.509
   154   1 H        0.926     0.052     2.300     2.372
   155   1 H        0.926     0.038     2.479     2.462
   156   1 H        0.926     0.038     2.480     2.463
   157   1 H        0.926     0.045     2.377     2.411

 Mol. C6AA /au·bohr⁶  :     253665.182719
 Mol. C8AA /au·bohr⁸  :    5867498.199368
 Mol. α(0) /au        :        765.464175


Wiberg/Mayer (AO) data.
largest (>0.10) Wiberg bond orders for each atom

 ---------------------------------------------------------------------------
     #   Z sym  total        # sym  WBO       # sym  WBO       # sym  WBO
 ---------------------------------------------------------------------------
     1   6 C    3.941 --     6 C    1.390     2 C    1.338    51 O    1.064
     2   6 C    3.975 --     3 C    1.391     1 C    1.338     7 C    0.992
     3   6 C    3.988 --     4 C    1.432     2 C    1.391    13 C    1.001
     4   6 C    3.983 --     3 C    1.432     5 C    1.359    84 H    0.963
     5   6 C    3.945 --     6 C    1.377     4 C    1.359    52 O    1.079
     6   6 C    3.974 --     1 C    1.390     5 C    1.377    85 H    0.959
     7   6 C    3.937 --     2 C    0.992    86 H    0.952     8 C    0.949
                            12 O    0.947
     8   6 C    3.948 --    15 O    0.993     9 C    0.963     7 C    0.949
                            87 H    0.947
     9   6 C    3.928 --    10 C    0.971     8 C    0.963    88 H    0.949
                            17 O    0.939
    10   6 C    3.936 --     9 C    0.971    16 O    0.963    11 C    0.958
                            89 H    0.953
    11   6 C    3.944 --    18 C    0.982    12 O    0.968    10 C    0.958
                            90 H    0.948
    12   8 O    2.062 --    11 C    0.968     7 C    0.947
    13   6 C    3.955 --     3 C    1.001    14 O    0.981    91 H    0.966
                            92 H    0.961
    14   8 O    1.923 --    13 C    0.981    93 H    0.864
    15   8 O    1.940 --     8 C    0.993    94 H    0.846
    16   8 O    2.089 --    20 C    0.985    10 C    0.963
    17   8 O    2.259 --    33 C    1.082     9 C    0.939    35 O    0.146
    18   6 C    3.960 --    19 O    1.013    11 C    0.982    96 H    0.967
                            95 H    0.966
    19   8 O    1.930 --    18 C    1.013    97 H    0.856
    20   6 C    3.929 --    16 O    0.985    21 O    0.959    25 C    0.954
                            98 H    0.936
    21   8 O    2.061 --    20 C    0.959    22 C    0.950
    22   6 C    3.939 --    29 C    0.984    23 C    0.969    21 O    0.950
                            99 H    0.949
    23   6 C    3.968 --    28 O    1.008    22 C    0.969    24 C    0.967
                           100 H    0.957
    24   6 C    3.958 --    26 O    0.999    23 C    0.967    25 C    0.962
                           101 H    0.948
    25   6 C    3.935 --    27 O    0.963    24 C    0.962    20 C    0.954
                           102 H    0.953
    26   8 O    1.932 --    24 C    0.999   103 H    0.852
    27   8 O    2.086 --    53 C    0.984    25 C    0.963
    28   8 O    1.923 --    23 C    1.008   104 H    0.842
    29   6 C    3.929 --    22 C    0.984    30 O    0.963   105 H    0.962
                           106 H    0.960
    30   8 O    2.272 --    31 C    1.083    29 C    0.963    32 O    0.148
    31   6 C    3.895 --    32 O    1.685    30 O    1.083    64 C    1.034
    32   8 O    1.988 --    31 C    1.685    30 O    0.148
    33   6 C    3.895 --    35 O    1.617    17 O    1.082    34 C    1.080
    34   6 C    3.964 --    36 C    1.700    33 C    1.080   107 H    0.959
                            38 C    0.112
    35   8 O    1.978 --    33 C    1.617    17 O    0.146
    36   6 C    3.970 --    34 C    1.700    37 C    1.167   108 H    0.955
    37   6 C    3.984 --    38 C    1.762    36 C    1.167   109 H    0.957
    38   6 C    3.969 --    37 C    1.762    39 C    1.046   110 H    0.962
                            34 C    0.112
    39   6 C    3.982 --    38 C    1.046   111 H    0.966   112 H    0.963
                            40 C    0.931
    40   6 C    3.942 --    41 C    1.012    42 O    0.981   113 H    0.958
                            39 C    0.931
    41   6 C    3.975 --    43 C    1.825    40 C    1.012   114 H    0.962
                            45 C    0.128
    42   8 O    1.925 --    40 C    0.981   115 H    0.868
    43   6 C    3.991 --    41 C    1.825    44 C    1.126   116 H    0.960
    44   6 C    3.988 --    45 C    1.821    43 C    1.126   117 H    0.962
    45   6 C    3.983 --    44 C    1.821    46 C    1.035   118 H    0.960
                            41 C    0.128
    46   6 C    3.996 --    45 C    1.035    47 C    0.997   119 H    0.970
                           120 H    0.947
    47   6 C    3.990 --    48 C    1.008    46 C    0.997   121 H    0.971
                           122 H    0.969
    48   6 C    3.996 --    47 C    1.008    49 C    1.008   123 H    0.976
                           124 H    0.972
    49   6 C    3.997 --    50 C    1.021    48 C    1.008   126 H    0.976
                           125 H    0.976
    50   6 C    3.995 --    49 C    1.021   127 H    0.987   129 H    0.987
                           128 H    0.981
    51   8 O    2.080 --     1 C    1.064   130 H    0.846
    52   8 O    2.089 --     5 C    1.079   131 H    0.850
    53   6 C    3.922 --    27 O    0.984    54 C    0.956    58 O    0.951
                           132 H    0.943
    54   6 C    3.959 --    62 O    1.001    55 C    0.969    53 C    0.956
                           133 H    0.955
    55   6 C    3.966 --    61 O    1.005    54 C    0.969    56 C    0.968
                           134 H    0.956
    56   6 C    3.965 --    60 O    1.003    55 C    0.968    57 C    0.966
                           135 H    0.955
    57   6 C    3.936 --    59 C    0.981    56 C    0.966    58 O    0.950
                           136 H    0.944
    58   8 O    2.059 --    53 C    0.951    57 C    0.950
    59   6 C    3.963 --    63 O    1.018    57 C    0.981   137 H    0.962
                           138 H    0.962
    60   8 O    1.941 --    56 C    1.003   139 H    0.831
    61   8 O    1.934 --    55 C    1.005   140 H    0.846
    62   8 O    1.927 --    54 C    1.001   141 H    0.853
    63   8 O    1.921 --    59 C    1.018   142 H    0.830
    64   6 C    3.975 --    65 C    1.366    69 C    1.363    31 C    1.034
    65   6 C    3.987 --    66 C    1.474    64 C    1.366   143 H    0.958
    66   6 C    3.985 --    65 C    1.474    67 C    1.367   144 H    0.958
    67   6 C    3.984 --    68 C    1.369    66 C    1.367    70 C    1.063
    68   6 C    3.986 --    69 C    1.477    67 C    1.369   145 H    0.965
    69   6 C    3.987 --    68 C    1.477    64 C    1.363   146 H    0.965
    70   6 C    3.985 --    71 C    1.375    75 C    1.367    67 C    1.063
    71   6 C    3.987 --    72 C    1.464    70 C    1.375   147 H    0.964
    72   6 C    3.987 --    71 C    1.464    73 C    1.365   148 H    0.959
    73   6 C    3.925 --    72 C    1.365    74 C    1.353    76 O    1.044
    74   6 C    3.986 --    75 C    1.481    73 C    1.353   149 H    0.965
    75   6 C    3.986 --    74 C    1.481    70 C    1.367   150 H    0.965
    76   8 O    2.193 --    73 C    1.044    77 C    0.960
    77   6 C    3.941 --    78 C    0.999   151 H    0.965    76 O    0.960
                           152 H    0.953
    78   6 C    3.987 --    83 C    1.416    79 C    1.408    77 C    0.999
                            81 C    0.109
    79   6 C    3.991 --    80 C    1.446    78 C    1.408   153 H    0.969
                            82 C    0.111
    80   6 C    3.991 --    79 C    1.446    81 C    1.435   154 H    0.966
                            83 C    0.111
    81   6 C    3.992 --    82 C    1.443    80 C    1.435   155 H    0.971
                            78 C    0.109
    82   6 C    3.992 --    81 C    1.443    83 C    1.441   156 H    0.970
                            79 C    0.111
    83   6 C    3.992 --    82 C    1.441    78 C    1.416   157 H    0.966
                            80 C    0.111
    84   1 H    0.994 --     4 C    0.963
    85   1 H    0.995 --     6 C    0.959
    86   1 H    0.998 --     7 C    0.952
    87   1 H    0.995 --     8 C    0.947
    88   1 H    0.999 --     9 C    0.949
    89   1 H    0.993 --    10 C    0.953
    90   1 H    0.997 --    11 C    0.948
    91   1 H    0.998 --    13 C    0.966
    92   1 H    0.998 --    13 C    0.961
    93   1 H    0.878 --    14 O    0.864
    94   1 H    0.898 --    15 O    0.846
    95   1 H    0.998 --    18 C    0.966
    96   1 H    0.995 --    18 C    0.967
    97   1 H    0.876 --    19 O    0.856
    98   1 H    1.000 --    20 C    0.936
    99   1 H    0.999 --    22 C    0.949
   100   1 H    0.997 --    23 C    0.957
   101   1 H    0.996 --    24 C    0.948
   102   1 H    0.991 --    25 C    0.953
   103   1 H    0.869 --    26 O    0.852
   104   1 H    0.864 --    28 O    0.842
   105   1 H    0.989 --    29 C    0.962
   106   1 H    0.993 --    29 C    0.960
   107   1 H    0.993 --    34 C    0.959
   108   1 H    0.994 --    36 C    0.955
   109   1 H    0.994 --    37 C    0.957
   110   1 H    0.995 --    38 C    0.962
   111   1 H    0.994 --    39 C    0.966
   112   1 H    0.991 --    39 C    0.963
   113   1 H    0.999 --    40 C    0.958
   114   1 H    0.996 --    41 C    0.962
   115   1 H    0.884 --    42 O    0.868
   116   1 H    0.999 --    43 C    0.960
   117   1 H    0.998 --    44 C    0.962
   118   1 H    0.999 --    45 C    0.960
   119   1 H    0.998 --    46 C    0.970
   120   1 H    0.991 --    46 C    0.947
   121   1 H    0.999 --    47 C    0.971
   122   1 H    0.997 --    47 C    0.969
   123   1 H    0.999 --    48 C    0.976
   124   1 H    0.999 --    48 C    0.972
   125   1 H    1.000 --    49 C    0.976
   126   1 H    0.999 --    49 C    0.976
   127   1 H    0.999 --    50 C    0.987
   128   1 H    0.998 --    50 C    0.981
   129   1 H    0.998 --    50 C    0.987
   130   1 H    0.866 --    51 O    0.846
   131   1 H    0.869 --    52 O    0.850
   132   1 H    1.000 --    53 C    0.943
   133   1 H    0.996 --    54 C    0.955
   134   1 H    0.999 --    55 C    0.956
   135   1 H    0.997 --    56 C    0.955
   136   1 H    1.000 --    57 C    0.944
   137   1 H    0.996 --    59 C    0.962
   138   1 H    0.997 --    59 C    0.962
   139   1 H    0.860 --    60 O    0.831
   140   1 H    0.863 --    61 O    0.846
   141   1 H    0.870 --    62 O    0.853
   142   1 H    0.871 --    63 O    0.830
   143   1 H    0.996 --    65 C    0.958
   144   1 H    0.995 --    66 C    0.958
   145   1 H    0.996 --    68 C    0.965
   146   1 H    0.996 --    69 C    0.965
   147   1 H    0.998 --    71 C    0.964
   148   1 H    0.997 --    72 C    0.959
   149   1 H    0.996 --    74 C    0.965
   150   1 H    0.997 --    75 C    0.965
   151   1 H    0.998 --    77 C    0.965
   152   1 H    0.995 --    77 C    0.953
   153   1 H    0.999 --    79 C    0.969
   154   1 H    0.997 --    80 C    0.966
   155   1 H    0.998 --    81 C    0.971
   156   1 H    0.998 --    82 C    0.970
   157   1 H    0.998 --    83 C    0.966
 ---------------------------------------------------------------------------

Topologies differ in total number of bonds
Writing topology from bond orders to xtbtopo.mol

molecular dipole:
                 x           y           z       tot (Debye)
 q only:       -3.278      -1.758      -1.107
   full:       -3.016      -2.081      -1.212       9.810
molecular quadrupole (traceless):
                xx          xy          yy          xz          yz          zz
 q only:      -35.853     -13.869      56.943     -44.529      19.296     -21.090
  q+dip:      -51.438     -17.419      57.682     -53.389      22.481      -6.245
   full:      -47.650     -17.384      55.951     -55.423      23.639      -8.302


           -------------------------------------------------
          | TOTAL ENERGY             -257.874714546625 Eh   |
          | GRADIENT NORM               0.125475469132 Eh/α |
          | HOMO-LUMO GAP               1.410382520630 eV   |
           -------------------------------------------------

------------------------------------------------------------------------
 * finished run on 2026/06/19 at 18:53:00.998     
------------------------------------------------------------------------
 total:
 * wall-time:     0 d,  0 h,  0 min,  0.343 sec
 *  cpu-time:     0 d,  0 h,  0 min,  5.257 sec
 * ratio c/w:    15.313 speedup
 SCF:
 * wall-time:     0 d,  0 h,  0 min,  0.292 sec
 *  cpu-time:     0 d,  0 h,  0 min,  4.587 sec
 * ratio c/w:    15.729 speedup

normal termination of xtb
