      -----------------------------------------------------------      
     |                   =====================                   |     
     |                           x T B                           |     
     |                   =====================                   |     
     |                         S. Grimme                         |     
     |          Mulliken Center for Theoretical Chemistry        |     
     |                    University of Bonn                     |     
      -----------------------------------------------------------      

   * xtb version 6.7.1 (edcfbbe) compiled by 'albert@albert-system' on 2024-07-22

   xtb is free software: you can redistribute it and/or modify it under
   the terms of the GNU Lesser General Public License as published by
   the Free Software Foundation, either version 3 of the License, or
   (at your option) any later version.
   
   xtb is distributed in the hope that it will be useful,
   but WITHOUT ANY WARRANTY; without even the implied warranty of
   MERCHANTABILITY or FITNESS FOR A PARTICULAR PURPOSE.  See the
   GNU Lesser General Public License for more details.
   
   Cite this work as:
   * C. Bannwarth, E. Caldeweyher, S. Ehlert, A. Hansen, P. Pracht,
     J. Seibert, S. Spicher, S. Grimme, WIREs Comput. Mol. Sci., 2020, 11,
     e01493. DOI: 10.1002/wcms.1493
   
   for GFN2-xTB:
   * C. Bannwarth, S. Ehlert and S. Grimme., J. Chem. Theory Comput., 2019,
     15, 1652-1671. DOI: 10.1021/acs.jctc.8b01176
   for GFN1-xTB:
   * S. Grimme, C. Bannwarth, P. Shushkov, J. Chem. Theory Comput., 2017,
     13, 1989-2009. DOI: 10.1021/acs.jctc.7b00118
   for GFN0-xTB:
   * P. Pracht, E. Caldeweyher, S. Ehlert, S. Grimme, ChemRxiv, 2019, preprint.
     DOI: 10.26434/chemrxiv.8326202.v1
   for GFN-FF:
   * S. Spicher and S. Grimme, Angew. Chem. Int. Ed., 2020, 59, 15665-15673.
     DOI: 10.1002/anie.202004239
   
   for ALPB and GBSA implicit solvation:
   * S. Ehlert, M. Stahn, S. Spicher, S. Grimme, J. Chem. Theory Comput.,
     2021, 17, 4250-4261. DOI: 10.1021/acs.jctc.1c00471
   
   for ddCOSMO and CPCM-X implicit solvation:
   * M. Stahn, S. Ehlert, S. Grimme, J. Phys. Chem. A,
     2023, XX, XXXX-XXXX. DOI: 10.1021/acs.jpca.3c04382
   
   for DFT-D4:
   * E. Caldeweyher, C. Bannwarth and S. Grimme, J. Chem. Phys., 2017,
     147, 034112. DOI: 10.1063/1.4993215
   * E. Caldeweyher, S. Ehlert, A. Hansen, H. Neugebauer, S. Spicher,
     C. Bannwarth and S. Grimme, J. Chem. Phys., 2019, 150, 154122.
     DOI: 10.1063/1.5090222
   * E. Caldeweyher, J.-M. Mewes, S. Ehlert and S. Grimme, Phys. Chem. Chem. Phys.
     2020, 22, 8499-8512. DOI: 10.1039/D0CP00502A
   
   for sTDA-xTB:
   * S. Grimme and C. Bannwarth, J. Chem. Phys., 2016, 145, 054103.
     DOI: 10.1063/1.4959605
   
   in the mass-spec context:
   * V. Asgeirsson, C. Bauer and S. Grimme, Chem. Sci., 2017, 8, 4879.
     DOI: 10.1039/c7sc00601b
   * J. Koopman and S. Grimme, ACS Omega 2019, 4, 12, 15120-15133.
     DOI: 10.1021/acsomega.9b02011
   
   for metadynamics refer to:
   * S. Grimme, J. Chem. Theory Comput., 2019, 155, 2847-2862
     DOI: 10.1021/acs.jctc.9b00143
   
   for SPH calculations refer to:
   * S. Spicher and S. Grimme, J. Chem. Theory Comput., 2021, 17, 1701-1714
     DOI: 10.1021/acs.jctc.0c01306
   
   for ONIOM refer to:
   * C. Plett, A. Katbashev, S. Ehlert, S. Grimme, M. Bursch,
     Phys. Chem. Chem. Phys., 2023, 25, 17860-17868. DOI: 10.1039/D3CP02178E
   
   for DIPRO refer to:
   * J. Kohn, N. Gildemeister, S. Grimme, D. Fazzi, A. Hansen,
     J. Chem. Phys., 2023, just accepted.
   
   for PTB refer to:
   * S. Grimme, M. Mueller, A. Hansen, J. Chem. Phys., 2023, 158, 124111.
     DOI: 10.1063/5.0137838
   
   with help from (in alphabetical order)
   P. Atkinson, C. Bannwarth, F. Bohle, G. Brandenburg, E. Caldeweyher
   M. Checinski, S. Dohm, S. Ehlert, S. Ehrlich, I. Gerasimov, C. Hölzer
   A. Katbashev, J. Kohn, J. Koopman, C. Lavigne, S. Lehtola, F. März, M. Müller,
   F. Musil, H. Neugebauer, J. Pisarek, C. Plett, P. Pracht, F. Pultar,
   J. Seibert, P. Shushkov, S. Spicher, M. Stahn, M. Steiner, T. Strunk,
   J. Stückrath, T. Rose, and J. Unsleber
   
 * started run on 2026/06/19 at 18:52:59.199     
   ID    Z sym.   atoms
    1    6 C      1-11, 13, 18, 20, 22-25, 29, 31, 33, 34, 36-41, 43-50,
                  53-57, 59, 64-75, 77-83
    2    8 O      12, 14-17, 19, 21, 26-28, 30, 32, 35, 42, 51, 52, 58,
                  60-63, 76
    3    1 H      84-157

           -------------------------------------------------
          |                Calculation Setup                |
           -------------------------------------------------

          program call               : xtb PAPU-0088/conf01.xyz --gfn 2 --alpb octanol --chrg 0 --uhf 0 --namespace PAPU-0088/conf01_octanol
          hostname                   : cpu10
          calculation namespace      : PAPU-0088/conf01_octanol
          coordinate file            : PAPU-0088/conf01.xyz
          omp threads                :                    16


           -------------------------------------------------
          |                 G F N 2 - x T B                 |
           -------------------------------------------------

        Reference                      10.1021/acs.jctc.8b01176
      * Hamiltonian:
        H0-scaling (s, p, d)           1.850000    2.230000    2.230000
        zeta-weighting                 0.500000
      * Dispersion:
        s8                             2.700000
        a1                             0.520000
        a2                             5.000000
        s9                             5.000000
      * Repulsion:
        kExp                           1.500000    1.000000
        rExp                           1.000000
      * Coulomb:
        alpha                          2.000000
        third order                    shell-resolved
        anisotropic                    true
        a3                             3.000000
        a5                             4.000000
        cn-shift                       1.200000
        cn-exp                         4.000000
        max-rad                        5.000000

      * Solvation model:               ALPB
        Solvent                        octanol
        Parameter file                 internal GFN2-xTB/ALPB
        Dielectric constant                9.8629E+00
        Reference state                gsolv [1 M gas/solution]
        Free energy shift                  2.3397E-03 Eh       1.4682E+00 kcal/mol
        Temperature                        2.9815E+02 K
        Density                            8.3000E-01 kg/L
        Solvent mass                       1.3023E+02 g/mol
        Interaction kernel             P16
        Born radius scaling (c1)           1.5898E+00
        Born radii integrator          GBOBC
        Born offset                        0.0000E+00 a0       0.0000E+00 AA
        H-bond correction              true
        Ion screening                  false
        Surface tension                    1.0000E-05 Eh       1.5569E+01 dyn/cm
        Grid points                               230 per atom

          ...................................................
          :                      SETUP                      :
          :.................................................:
          :  # basis functions                 406          :
          :  # atomic orbitals                 406          :
          :  # shells                          240          :
          :  # electrons                       450          :
          :  max. iterations                   250          :
          :  Hamiltonian                  GFN2-xTB          :
          :  restarted?                      false          :
          :  GBSA solvation                   true          :
          :  PC potential                    false          :
          :  electronic temp.          300.0000000     K    :
          :  accuracy                    1.0000000          :
          :  -> integral cutoff          0.2500000E+02      :
          :  -> integral neglect         0.1000000E-07      :
          :  -> SCF convergence          0.1000000E-05 Eh   :
          :  -> wf. convergence          0.1000000E-03 e    :
          :  Broyden damping             0.4000000          :
          :  net charge                          0          :
          :  unpaired electrons                  0          :
          ...................................................

 iter      E             dE          RMSdq      gap      omega  full diag
   1   -260.5744074 -0.260574E+03  0.459E+00    2.23       0.0  T
   2   -260.8209165 -0.246509E+00  0.255E+00    1.61       1.0  T
   3   -260.7986305  0.222860E-01  0.104E+00    1.66       1.0  T
   4   -260.8452904 -0.466600E-01  0.295E-01    1.40       1.0  T
   5   -260.8511643 -0.587382E-02  0.128E-01    1.41       1.0  T
   6   -260.8521760 -0.101177E-02  0.622E-02    1.43       1.0  T
   7   -260.8523348 -0.158737E-03  0.282E-02    1.44       1.0  T
   8   -260.8523711 -0.363689E-04  0.111E-02    1.43       1.0  T
   9   -260.8523753 -0.418361E-05  0.583E-03    1.43       1.4  T
  10   -260.8523772 -0.191082E-05  0.284E-03    1.43       2.8  T
  11   -260.8523776 -0.353503E-06  0.138E-03    1.43       5.8  T
  12   -260.8523776 -0.449085E-07  0.571E-04    1.43      14.0  T
  13   -260.8523776 -0.198555E-07  0.246E-04    1.43      32.4  T

   *** convergence criteria satisfied after 13 iterations ***

         #    Occupation            Energy/Eh            Energy/eV
      -------------------------------------------------------------
         1        2.0000           -0.7801996             -21.2303
       ...           ...                  ...                  ...
       219        2.0000           -0.4068489             -11.0709
       220        2.0000           -0.4020309             -10.9398
       221        2.0000           -0.3996974             -10.8763
       222        2.0000           -0.3955873             -10.7645
       223        2.0000           -0.3887031             -10.5772
       224        2.0000           -0.3797098             -10.3324
       225        2.0000           -0.3723293             -10.1316 (HOMO)
       226                         -0.3196528              -8.6982 (LUMO)
       227                         -0.2881497              -7.8410
       228                         -0.2449615              -6.6657
       229                         -0.2384727              -6.4892
       230                         -0.2358477              -6.4177
       ...                                ...                  ...
       406                          0.6885513              18.7364
      -------------------------------------------------------------
                  HL-Gap            0.0526765 Eh            1.4334 eV
             Fermi-level           -0.3459910 Eh           -9.4149 eV

 SCC (total)                   0 d,  0 h,  0 min,  0.292 sec
 SCC setup                      ...        0 min,  0.003 sec (  1.154%)
 Dispersion                     ...        0 min,  0.005 sec (  1.796%)
 classical contributions        ...        0 min,  0.000 sec (  0.044%)
 integral evaluation            ...        0 min,  0.013 sec (  4.497%)
 iterations                     ...        0 min,  0.225 sec ( 77.009%)
 molecular gradient             ...        0 min,  0.044 sec ( 15.133%)
 printout                       ...        0 min,  0.001 sec (  0.353%)

         :::::::::::::::::::::::::::::::::::::::::::::::::::::
         ::                     SUMMARY                     ::
         :::::::::::::::::::::::::::::::::::::::::::::::::::::
         :: total energy            -257.877125737425 Eh    ::
         :: total w/o Gsasa/hb      -257.790013111057 Eh    ::
         :: gradient norm              0.125619837855 Eh/a0 ::
         :: HOMO-LUMO gap              1.433399279137 eV    ::
         ::.................................................::
         :: SCC energy              -260.832855673822 Eh    ::
         :: -> isotropic ES            0.560692718041 Eh    ::
         :: -> anisotropic ES         -0.023541674288 Eh    ::
         :: -> anisotropic XC          0.029501485877 Eh    ::
         :: -> dispersion             -0.225842846198 Eh    ::
         :: -> Gsolv                  -0.125603410242 Eh    ::
         ::    -> Gelec               -0.038490783874 Eh    ::
         ::    -> Gsasa               -0.034051444397 Eh    ::
         ::    -> Ghb                 -0.055400851347 Eh    ::
         ::    -> Gshift               0.002339669376 Eh    ::
         :: repulsion energy           2.955729936397 Eh    ::
         :: add. restraining           0.000000000000 Eh    ::
         :: total charge              -0.000000000000 e     ::
         :::::::::::::::::::::::::::::::::::::::::::::::::::::

           -------------------------------------------------
          |                Property Printout                |
           -------------------------------------------------

    * Orbital Energies and Occupations

         #    Occupation            Energy/Eh            Energy/eV
      -------------------------------------------------------------
         1        2.0000           -0.7801996             -21.2303
       ...           ...                  ...                  ...
       213        2.0000           -0.4160030             -11.3200
       214        2.0000           -0.4146723             -11.2838
       215        2.0000           -0.4133865             -11.2488
       216        2.0000           -0.4108993             -11.1811
       217        2.0000           -0.4095611             -11.1447
       218        2.0000           -0.4073184             -11.0837
       219        2.0000           -0.4068489             -11.0709
       220        2.0000           -0.4020309             -10.9398
       221        2.0000           -0.3996974             -10.8763
       222        2.0000           -0.3955873             -10.7645
       223        2.0000           -0.3887031             -10.5772
       224        2.0000           -0.3797098             -10.3324
       225        2.0000           -0.3723293             -10.1316 (HOMO)
       226                         -0.3196528              -8.6982 (LUMO)
       227                         -0.2881497              -7.8410
       228                         -0.2449615              -6.6657
       229                         -0.2384727              -6.4892
       230                         -0.2358477              -6.4177
       231                         -0.2335299              -6.3547
       232                         -0.2312636              -6.2930
       233                         -0.2299423              -6.2570
       234                         -0.2262259              -6.1559
       235                         -0.2204818              -5.9996
       236                         -0.2182097              -5.9378
       ...                                ...                  ...
       406                          0.6885513              18.7364
      -------------------------------------------------------------
                  HL-Gap            0.0526765 Eh            1.4334 eV
             Fermi-level           -0.3459910 Eh           -9.4149 eV

     #   Z          covCN         q      C6AA      α(0)
     1   6 C        2.841     0.142    24.911     8.180
     2   6 C        2.974    -0.029    28.712     8.789
     3   6 C        2.965     0.012    27.741     8.639
     4   6 C        2.929    -0.072    29.791     8.951
     5   6 C        2.839     0.151    24.716     8.147
     6   6 C        2.920    -0.117    30.975     9.127
     7   6 C        3.744     0.104    18.937     6.208
     8   6 C        3.722     0.092    19.160     6.251
     9   6 C        3.763     0.109    18.826     6.185
    10   6 C        3.744     0.092    19.126     6.239
    11   6 C        3.741     0.085    19.238     6.258
    12   8 O        1.695    -0.349    19.873     6.019
    13   6 C        3.681     0.074    19.545     6.331
    14   8 O        1.653    -0.495    22.786     6.444
    15   8 O        1.651    -0.476    22.389     6.387
    16   8 O        1.698    -0.326    19.458     5.956
    17   8 O        1.702    -0.299    18.980     5.882
    18   6 C        3.675     0.073    19.581     6.341
    19   8 O        1.654    -0.474    22.347     6.381
    20   6 C        3.645     0.251    17.025     5.931
    21   8 O        1.696    -0.352    19.934     6.028
    22   6 C        3.754     0.114    18.763     6.177
    23   6 C        3.721     0.092    19.168     6.253
    24   6 C        3.721     0.082    19.321     6.278
    25   6 C        3.751     0.083    19.255     6.258
    26   8 O        1.654    -0.481    22.486     6.401
    27   8 O        1.699    -0.323    19.396     5.946
    28   8 O        1.653    -0.480    22.475     6.400
    29   6 C        3.736     0.068    19.521     6.305
    30   8 O        1.703    -0.276    18.582     5.820
    31   6 C        2.757     0.351    21.045     7.512
    32   8 O        0.857    -0.462    22.967     6.425
    33   6 C        2.738     0.355    20.981     7.500
    34   6 C        2.897    -0.097    30.437     9.046
    35   8 O        0.858    -0.485    23.464     6.495
    36   6 C        2.903    -0.002    28.070     8.687
    37   6 C        2.900    -0.043    29.074     8.841
    38   6 C        2.895    -0.016    28.405     8.738
    39   6 C        3.807    -0.083    22.085     6.690
    40   6 C        3.728     0.118    18.748     6.182
    41   6 C        2.895    -0.070    29.742     8.942
    42   8 O        1.652    -0.490    22.670     6.427
    43   6 C        2.898    -0.038    28.948     8.822
    44   6 C        2.898    -0.056    29.392     8.889
    45   6 C        2.895    -0.033    28.815     8.801
    46   6 C        3.804    -0.059    21.624     6.620
    47   6 C        3.801    -0.066    21.761     6.642
    48   6 C        3.801    -0.057    21.602     6.617
    49   6 C        3.799    -0.053    21.522     6.605
    50   6 C        3.751    -0.107    22.611     6.781
    51   8 O        1.656    -0.443    21.692     6.287
    52   8 O        1.657    -0.431    21.458     6.253
    53   6 C        3.649     0.238    17.194     5.957
    54   6 C        3.722     0.084    19.295     6.273
    55   6 C        3.724     0.094    19.131     6.246
    56   6 C        3.721     0.088    19.222     6.262
    57   6 C        3.740     0.103    18.964     6.213
    58   8 O        1.696    -0.363    20.128     6.057
    59   6 C        3.674     0.077    19.524     6.332
    60   8 O        1.653    -0.481    22.479     6.400
    61   8 O        1.654    -0.476    22.379     6.386
    62   8 O        1.654    -0.481    22.483     6.401
    63   8 O        1.654    -0.483    22.530     6.408
    64   6 C        2.975    -0.028    28.700     8.788
    65   6 C        2.926    -0.029    28.719     8.788
    66   6 C        2.928    -0.032    28.792     8.800
    67   6 C        2.976     0.023    27.486     8.600
    68   6 C        2.925    -0.036    28.896     8.815
    69   6 C        2.925    -0.018    28.450     8.747
    70   6 C        2.976     0.000    28.022     8.683
    71   6 C        2.923    -0.033    28.829     8.805
    72   6 C        2.919    -0.062    29.540     8.913
    73   6 C        2.861     0.144    24.856     8.172
    74   6 C        2.921    -0.053    29.309     8.878
    75   6 C        2.923    -0.035    28.880     8.813
    76   8 O        1.700    -0.301    19.007     5.886
    77   6 C        3.701     0.072    19.521     6.318
    78   6 C        2.971    -0.001    28.050     8.687
    79   6 C        2.929    -0.045    29.108     8.848
    80   6 C        2.922    -0.034    28.843     8.807
    81   6 C        2.925    -0.034    28.842     8.807
    82   6 C        2.922    -0.032    28.809     8.802
    83   6 C        2.930    -0.035    28.870     8.812
    84   1 H        0.926     0.076     2.020     2.223
    85   1 H        0.926     0.067     2.120     2.277
    86   1 H        0.924     0.045     2.387     2.416
    87   1 H        0.923     0.070     2.089     2.260
    88   1 H        0.924     0.029     2.602     2.523
    89   1 H        0.923     0.078     2.000     2.212
    90   1 H        0.924     0.054     2.268     2.355
    91   1 H        0.924     0.040     2.449     2.447
    92   1 H        0.924     0.036     2.505     2.475
    93   1 H        0.804     0.347     0.594     1.211
    94   1 H        0.802     0.320     0.663     1.279
    95   1 H        0.924     0.044     2.394     2.420
    96   1 H        0.924     0.068     2.107     2.270
    97   1 H        0.803     0.352     0.585     1.201
    98   1 H        0.924    -0.001     3.067     2.739
    99   1 H        0.923     0.027     2.630     2.536
   100   1 H        0.923     0.050     2.322     2.383
   101   1 H        0.923     0.064     2.149     2.292
   102   1 H        0.924     0.094     1.845     2.124
   103   1 H        0.804     0.362     0.561     1.177
   104   1 H        0.803     0.368     0.547     1.162
   105   1 H        0.924     0.102     1.765     2.078
   106   1 H        0.924     0.080     1.983     2.202
   107   1 H        0.926     0.084     1.937     2.176
   108   1 H        0.926     0.076     2.016     2.220
   109   1 H        0.926     0.075     2.028     2.227
   110   1 H        0.926     0.072     2.066     2.248
   111   1 H        0.924     0.065     2.142     2.289
   112   1 H        0.924     0.076     2.017     2.221
   113   1 H        0.923     0.053     2.288     2.365
   114   1 H        0.926     0.053     2.289     2.366
   115   1 H        0.804     0.338     0.618     1.235
   116   1 H        0.926     0.028     2.608     2.526
   117   1 H        0.926     0.041     2.431     2.438
   118   1 H        0.926     0.033     2.546     2.495
   119   1 H        0.924     0.045     2.378     2.412
   120   1 H        0.924     0.043     2.413     2.429
   121   1 H        0.924     0.036     2.508     2.477
   122   1 H        0.924     0.044     2.397     2.421
   123   1 H        0.924     0.029     2.595     2.519
   124   1 H        0.924     0.024     2.677     2.559
   125   1 H        0.924     0.021     2.721     2.580
   126   1 H        0.924     0.032     2.558     2.501
   127   1 H        0.924     0.031     2.565     2.505
   128   1 H        0.924     0.044     2.400     2.423
   129   1 H        0.924     0.034     2.531     2.488
   130   1 H        0.804     0.365     0.555     1.170
   131   1 H        0.804     0.361     0.563     1.179
   132   1 H        0.923     0.003     3.009     2.713
   133   1 H        0.923     0.061     2.184     2.311
   134   1 H        0.923     0.031     2.576     2.510
   135   1 H        0.923     0.050     2.322     2.383
   136   1 H        0.924     0.011     2.881     2.654
   137   1 H        0.924     0.063     2.170     2.304
   138   1 H        0.924     0.049     2.329     2.386
   139   1 H        0.803     0.374     0.536     1.150
   140   1 H        0.804     0.370     0.544     1.159
   141   1 H        0.804     0.360     0.566     1.182
   142   1 H        0.803     0.359     0.568     1.184
   143   1 H        0.926     0.061     2.185     2.312
   144   1 H        0.926     0.067     2.116     2.275
   145   1 H        0.926     0.060     2.204     2.322
   146   1 H        0.926     0.056     2.248     2.345
   147   1 H        0.926     0.040     2.447     2.446
   148   1 H        0.926     0.049     2.333     2.388
   149   1 H        0.926     0.063     2.170     2.303
   150   1 H        0.926     0.053     2.281     2.362
   151   1 H        0.924     0.038     2.469     2.457
   152   1 H        0.924     0.064     2.147     2.292
   153   1 H        0.926     0.032     2.564     2.504
   154   1 H        0.926     0.052     2.301     2.372
   155   1 H        0.926     0.038     2.479     2.462
   156   1 H        0.926     0.038     2.477     2.461
   157   1 H        0.926     0.045     2.383     2.414

 Mol. C6AA /au·bohr⁶  :     253621.707834
 Mol. C8AA /au·bohr⁸  :    5867158.697887
 Mol. α(0) /au        :        765.397731


Wiberg/Mayer (AO) data.
largest (>0.10) Wiberg bond orders for each atom

 ---------------------------------------------------------------------------
     #   Z sym  total        # sym  WBO       # sym  WBO       # sym  WBO
 ---------------------------------------------------------------------------
     1   6 C    3.941 --     6 C    1.390     2 C    1.338    51 O    1.064
     2   6 C    3.975 --     3 C    1.391     1 C    1.338     7 C    0.992
     3   6 C    3.988 --     4 C    1.432     2 C    1.391    13 C    1.001
     4   6 C    3.983 --     3 C    1.432     5 C    1.359    84 H    0.963
     5   6 C    3.945 --     6 C    1.377     4 C    1.359    52 O    1.079
     6   6 C    3.974 --     1 C    1.390     5 C    1.377    85 H    0.959
     7   6 C    3.937 --     2 C    0.992    86 H    0.952     8 C    0.949
                            12 O    0.947
     8   6 C    3.948 --    15 O    0.993     9 C    0.963     7 C    0.949
                            87 H    0.947
     9   6 C    3.929 --    10 C    0.971     8 C    0.963    88 H    0.950
                            17 O    0.939
    10   6 C    3.936 --     9 C    0.971    16 O    0.963    11 C    0.958
                            89 H    0.953
    11   6 C    3.944 --    18 C    0.982    12 O    0.968    10 C    0.958
                            90 H    0.948
    12   8 O    2.062 --    11 C    0.968     7 C    0.947
    13   6 C    3.955 --     3 C    1.001    14 O    0.981    91 H    0.966
                            92 H    0.961
    14   8 O    1.923 --    13 C    0.981    93 H    0.864
    15   8 O    1.940 --     8 C    0.993    94 H    0.845
    16   8 O    2.089 --    20 C    0.985    10 C    0.963
    17   8 O    2.258 --    33 C    1.081     9 C    0.939    35 O    0.146
    18   6 C    3.960 --    19 O    1.013    11 C    0.982    96 H    0.967
                            95 H    0.966
    19   8 O    1.930 --    18 C    1.013    97 H    0.856
    20   6 C    3.929 --    16 O    0.985    21 O    0.959    25 C    0.953
                            98 H    0.936
    21   8 O    2.061 --    20 C    0.959    22 C    0.950
    22   6 C    3.939 --    29 C    0.984    23 C    0.969    21 O    0.950
                            99 H    0.949
    23   6 C    3.968 --    28 O    1.008    22 C    0.969    24 C    0.967
                           100 H    0.957
    24   6 C    3.958 --    26 O    0.999    23 C    0.967    25 C    0.962
                           101 H    0.948
    25   6 C    3.935 --    27 O    0.963    24 C    0.962    20 C    0.953
                           102 H    0.953
    26   8 O    1.932 --    24 C    0.999   103 H    0.852
    27   8 O    2.086 --    53 C    0.984    25 C    0.963
    28   8 O    1.923 --    23 C    1.008   104 H    0.842
    29   6 C    3.929 --    22 C    0.984    30 O    0.962   105 H    0.962
                           106 H    0.960
    30   8 O    2.272 --    31 C    1.083    29 C    0.962    32 O    0.148
    31   6 C    3.895 --    32 O    1.685    30 O    1.083    64 C    1.035
    32   8 O    1.989 --    31 C    1.685    30 O    0.148
    33   6 C    3.895 --    35 O    1.616    17 O    1.081    34 C    1.081
    34   6 C    3.964 --    36 C    1.699    33 C    1.081   107 H    0.959
                            38 C    0.111
    35   8 O    1.978 --    33 C    1.616    17 O    0.146
    36   6 C    3.969 --    34 C    1.699    37 C    1.168   108 H    0.956
    37   6 C    3.984 --    38 C    1.761    36 C    1.168   109 H    0.957
    38   6 C    3.969 --    37 C    1.761    39 C    1.047   110 H    0.962
                            34 C    0.111
    39   6 C    3.983 --    38 C    1.047   111 H    0.966   112 H    0.963
                            40 C    0.931
    40   6 C    3.941 --    41 C    1.007    42 O    0.985   113 H    0.957
                            39 C    0.931
    41   6 C    3.976 --    43 C    1.824    40 C    1.007   114 H    0.963
                            45 C    0.129
    42   8 O    1.938 --    40 C    0.985   115 H    0.869
    43   6 C    3.991 --    41 C    1.824    44 C    1.127   116 H    0.961
    44   6 C    3.988 --    45 C    1.820    43 C    1.127   117 H    0.963
    45   6 C    3.982 --    44 C    1.820    46 C    1.035   118 H    0.960
                            41 C    0.129
    46   6 C    3.996 --    45 C    1.035    47 C    0.999   119 H    0.969
                           120 H    0.946
    47   6 C    3.991 --    48 C    1.008    46 C    0.999   121 H    0.971
                           122 H    0.969
    48   6 C    3.996 --    47 C    1.008    49 C    1.008   123 H    0.976
                           124 H    0.972
    49   6 C    3.997 --    50 C    1.021    48 C    1.008   126 H    0.976
                           125 H    0.976
    50   6 C    3.995 --    49 C    1.021   127 H    0.987   129 H    0.987
                           128 H    0.981
    51   8 O    2.080 --     1 C    1.064   130 H    0.846
    52   8 O    2.089 --     5 C    1.079   131 H    0.850
    53   6 C    3.922 --    27 O    0.984    54 C    0.956    58 O    0.951
                           132 H    0.942
    54   6 C    3.959 --    62 O    1.001    55 C    0.969    53 C    0.956
                           133 H    0.955
    55   6 C    3.967 --    61 O    1.005    54 C    0.969    56 C    0.968
                           134 H    0.955
    56   6 C    3.965 --    60 O    1.003    55 C    0.968    57 C    0.966
                           135 H    0.955
    57   6 C    3.936 --    59 C    0.981    56 C    0.966    58 O    0.950
                           136 H    0.944
    58   8 O    2.059 --    53 C    0.951    57 C    0.950
    59   6 C    3.963 --    63 O    1.018    57 C    0.981   138 H    0.962
                           137 H    0.962
    60   8 O    1.941 --    56 C    1.003   139 H    0.831
    61   8 O    1.934 --    55 C    1.005   140 H    0.846
    62   8 O    1.927 --    54 C    1.001   141 H    0.853
    63   8 O    1.921 --    59 C    1.018   142 H    0.830
    64   6 C    3.975 --    65 C    1.366    69 C    1.363    31 C    1.035
    65   6 C    3.987 --    66 C    1.474    64 C    1.366   143 H    0.958
    66   6 C    3.985 --    65 C    1.474    67 C    1.367   144 H    0.958
    67   6 C    3.984 --    68 C    1.369    66 C    1.367    70 C    1.062
    68   6 C    3.986 --    69 C    1.477    67 C    1.369   145 H    0.965
    69   6 C    3.987 --    68 C    1.477    64 C    1.363   146 H    0.965
    70   6 C    3.985 --    71 C    1.375    75 C    1.367    67 C    1.062
    71   6 C    3.987 --    72 C    1.464    70 C    1.375   147 H    0.964
    72   6 C    3.988 --    71 C    1.464    73 C    1.365   148 H    0.959
    73   6 C    3.925 --    72 C    1.365    74 C    1.354    76 O    1.043
    74   6 C    3.986 --    75 C    1.480    73 C    1.354   149 H    0.965
    75   6 C    3.986 --    74 C    1.480    70 C    1.367   150 H    0.965
    76   8 O    2.191 --    73 C    1.043    77 C    0.960
    77   6 C    3.941 --    78 C    0.999   151 H    0.965    76 O    0.960
                           152 H    0.953
    78   6 C    3.987 --    83 C    1.416    79 C    1.408    77 C    0.999
                            81 C    0.109
    79   6 C    3.991 --    80 C    1.447    78 C    1.408   153 H    0.969
                            82 C    0.111
    80   6 C    3.991 --    79 C    1.447    81 C    1.436   154 H    0.967
                            83 C    0.111
    81   6 C    3.992 --    82 C    1.443    80 C    1.436   155 H    0.971
                            78 C    0.109
    82   6 C    3.992 --    81 C    1.443    83 C    1.441   156 H    0.970
                            79 C    0.111
    83   6 C    3.992 --    82 C    1.441    78 C    1.416   157 H    0.966
                            80 C    0.111
    84   1 H    0.994 --     4 C    0.963
    85   1 H    0.995 --     6 C    0.959
    86   1 H    0.998 --     7 C    0.952
    87   1 H    0.995 --     8 C    0.947
    88   1 H    0.999 --     9 C    0.950
    89   1 H    0.993 --    10 C    0.953
    90   1 H    0.997 --    11 C    0.948
    91   1 H    0.998 --    13 C    0.966
    92   1 H    0.998 --    13 C    0.961
    93   1 H    0.878 --    14 O    0.864
    94   1 H    0.897 --    15 O    0.845
    95   1 H    0.998 --    18 C    0.966
    96   1 H    0.995 --    18 C    0.967
    97   1 H    0.876 --    19 O    0.856
    98   1 H    1.000 --    20 C    0.936
    99   1 H    0.999 --    22 C    0.949
   100   1 H    0.997 --    23 C    0.957
   101   1 H    0.996 --    24 C    0.948
   102   1 H    0.991 --    25 C    0.953
   103   1 H    0.869 --    26 O    0.852
   104   1 H    0.864 --    28 O    0.842
   105   1 H    0.989 --    29 C    0.962
   106   1 H    0.993 --    29 C    0.960
   107   1 H    0.993 --    34 C    0.959
   108   1 H    0.994 --    36 C    0.956
   109   1 H    0.994 --    37 C    0.957
   110   1 H    0.995 --    38 C    0.962
   111   1 H    0.995 --    39 C    0.966
   112   1 H    0.990 --    39 C    0.963
   113   1 H    0.997 --    40 C    0.957
   114   1 H    0.997 --    41 C    0.963
   115   1 H    0.886 --    42 O    0.869
   116   1 H    0.999 --    43 C    0.961
   117   1 H    0.998 --    44 C    0.963
   118   1 H    0.999 --    45 C    0.960
   119   1 H    0.998 --    46 C    0.969
   120   1 H    0.990 --    46 C    0.946
   121   1 H    0.999 --    47 C    0.971
   122   1 H    0.997 --    47 C    0.969
   123   1 H    0.999 --    48 C    0.976
   124   1 H    0.999 --    48 C    0.972
   125   1 H    1.000 --    49 C    0.976
   126   1 H    0.999 --    49 C    0.976
   127   1 H    0.999 --    50 C    0.987
   128   1 H    0.998 --    50 C    0.981
   129   1 H    0.998 --    50 C    0.987
   130   1 H    0.866 --    51 O    0.846
   131   1 H    0.869 --    52 O    0.850
   132   1 H    1.000 --    53 C    0.942
   133   1 H    0.996 --    54 C    0.955
   134   1 H    0.999 --    55 C    0.955
   135   1 H    0.997 --    56 C    0.955
   136   1 H    1.000 --    57 C    0.944
   137   1 H    0.996 --    59 C    0.962
   138   1 H    0.997 --    59 C    0.962
   139   1 H    0.860 --    60 O    0.831
   140   1 H    0.863 --    61 O    0.846
   141   1 H    0.870 --    62 O    0.853
   142   1 H    0.871 --    63 O    0.830
   143   1 H    0.996 --    65 C    0.958
   144   1 H    0.995 --    66 C    0.958
   145   1 H    0.996 --    68 C    0.965
   146   1 H    0.996 --    69 C    0.965
   147   1 H    0.998 --    71 C    0.964
   148   1 H    0.997 --    72 C    0.959
   149   1 H    0.996 --    74 C    0.965
   150   1 H    0.997 --    75 C    0.965
   151   1 H    0.998 --    77 C    0.965
   152   1 H    0.995 --    77 C    0.953
   153   1 H    0.999 --    79 C    0.969
   154   1 H    0.997 --    80 C    0.967
   155   1 H    0.998 --    81 C    0.971
   156   1 H    0.998 --    82 C    0.970
   157   1 H    0.998 --    83 C    0.966
 ---------------------------------------------------------------------------

Topologies differ in total number of bonds
Writing topology from bond orders to xtbtopo.mol

molecular dipole:
                 x           y           z       tot (Debye)
 q only:       -3.132      -1.581      -1.887
   full:       -2.814      -1.806      -2.236      10.225
molecular quadrupole (traceless):
                xx          xy          yy          xz          yz          zz
 q only:      -37.948     -19.524      52.653     -34.232      35.629     -14.706
  q+dip:      -53.885     -25.674      51.353     -39.794      44.143       2.532
   full:      -49.964     -25.589      49.503     -41.783      45.435       0.461


           -------------------------------------------------
          | TOTAL ENERGY             -257.877125737425 Eh   |
          | GRADIENT NORM               0.125619837855 Eh/α |
          | HOMO-LUMO GAP               1.433399279137 eV   |
           -------------------------------------------------

------------------------------------------------------------------------
 * finished run on 2026/06/19 at 18:52:59.544     
------------------------------------------------------------------------
 total:
 * wall-time:     0 d,  0 h,  0 min,  0.344 sec
 *  cpu-time:     0 d,  0 h,  0 min,  5.360 sec
 * ratio c/w:    15.586 speedup
 SCF:
 * wall-time:     0 d,  0 h,  0 min,  0.293 sec
 *  cpu-time:     0 d,  0 h,  0 min,  4.679 sec
 * ratio c/w:    15.946 speedup

normal termination of xtb
